ITEM: TIMESTEP
40000000
ITEM: NUMBER OF ATOMS
20000
ITEM: BOX BOUNDS pp pp pp
-1.6260177459716488e-01 5.9569802836693668e+01
-1.6260177459716488e-01 5.9569802836693668e+01
-1.6260177459716488e-01 5.9569802836693668e+01
ITEM: ATOMS id type mol xs ys zs 
1 1 1 0.0742329 0.495037 0.255489 
2 2 1 0.0590489 0.501741 0.246951 
3 2 1 0.0781869 0.478211 0.248621 
4 2 1 0.070734 0.492865 0.273237 
5 1 1 0.0946548 0.509497 0.254248 
6 2 1 0.101281 0.509949 0.270673 
7 1 1 0.114235 0.50107 0.239624 
8 2 1 0.127599 0.513335 0.24479 
9 1 1 0.12342 0.478721 0.247008 
10 2 1 0.13946 0.477154 0.237069 
11 2 1 0.127708 0.476359 0.265815 
12 2 1 0.112189 0.465673 0.241242 
13 1 1 0.087156 0.53352 0.250905 
14 2 1 0.0739955 0.539285 0.26357 
15 2 1 0.102466 0.543912 0.253785 
16 2 1 0.0833024 0.537119 0.234162 
17 1 1 0.109932 0.504033 0.214988 
18 2 1 0.0961736 0.49341 0.211022 
19 2 1 0.106434 0.52172 0.210522 
20 2 1 0.124402 0.498682 0.205036 
21 1 2 0.681523 0.523963 0.763429 
22 2 2 0.690931 0.517057 0.749649 
23 2 2 0.687801 0.516738 0.779167 
24 2 2 0.664341 0.518378 0.761614 
25 1 2 0.683334 0.549955 0.763312 
26 2 2 0.67552 0.5546 0.747199 
27 1 2 0.673337 0.563624 0.784416 
28 2 2 0.676901 0.580637 0.780921 
29 1 2 0.648215 0.561541 0.785989 
30 2 2 0.644269 0.57376 0.798388 
31 2 2 0.640879 0.565838 0.769843 
32 2 2 0.643783 0.545201 0.791556 
33 1 2 0.708319 0.555662 0.759777 
34 2 2 0.710631 0.574843 0.75748 
35 2 2 0.718991 0.551907 0.774618 
36 2 2 0.716722 0.549402 0.744767 
37 1 2 0.685958 0.558538 0.806279 
38 2 2 0.676532 0.564453 0.820875 
39 2 2 0.687922 0.540629 0.809638 
40 2 2 0.703161 0.565129 0.807036 
41 1 3 0.329705 0.231515 0.28587 
42 2 3 0.345692 0.226808 0.280634 
43 2 3 0.328718 0.232242 0.304472 
44 2 3 0.319072 0.217764 0.281288 
45 1 3 0.322406 0.253285 0.276796 
46 2 3 0.334482 0.264375 0.28367 
47 1 3 0.322635 0.254263 0.251214 
48 2 3 0.333226 0.239422 0.246278 
49 1 3 0.300099 0.25072 0.239471 
50 2 3 0.290547 0.236116 0.244853 
51 2 3 0.289184 0.264647 0.242762 
52 2 3 0.301517 0.249502 0.221751 
53 1 3 0.29944 0.262738 0.286434 
54 2 3 0.287184 0.251076 0.280213 
55 2 3 0.2982 0.261793 0.304962 
56 2 3 0.295992 0.280151 0.281954 
57 1 3 0.332746 0.277339 0.24422 
58 2 3 0.332929 0.280254 0.226223 
59 2 3 0.324476 0.292716 0.251347 
60 2 3 0.350155 0.278549 0.249594 
61 1 4 0.738785 0.282604 0.537851 
62 2 4 0.742959 0.299364 0.544814 
63 2 4 0.7434 0.269863 0.549744 
64 2 4 0.746471 0.280873 0.522804 
65 1 4 0.713566 0.280537 0.535763 
66 2 4 0.710488 0.268048 0.521954 
67 1 4 0.70278 0.275443 0.558922 
68 2 4 0.68546 0.279126 0.555721 
69 1 4 0.704553 0.250199 0.563053 
70 2 4 0.692812 0.24011 0.553017 
71 2 4 0.720903 0.242194 0.558521 
72 2 4 0.700609 0.247985 0.580658 
73 1 4 0.704799 0.302017 0.525542 
74 2 4 0.712609 0.306167 0.509106 
75 2 4 0.686546 0.299362 0.521229 
76 2 4 0.709326 0.31488 0.537332 
77 1 4 0.713083 0.289997 0.579003 
78 2 4 0.709359 0.284403 0.596107 
79 2 4 0.731592 0.29052 0.579654 
80 2 4 0.707146 0.30762 0.578295 
81 1 5 0.595041 0.471147 0.211117 
82 2 5 0.602841 0.473207 0.228103 
83 2 5 0.584679 0.485368 0.208065 
84 2 5 0.583177 0.458332 0.213323 
85 1 5 0.612257 0.465861 0.192474 
86 2 5 0.604374 0.467727 0.17585 
87 1 5 0.630433 0.4846 0.191978 
88 2 5 0.63727 0.483909 0.209287 
89 1 5 0.649792 0.479588 0.174884 
90 2 5 0.659974 0.464498 0.180315 
91 2 5 0.642918 0.476141 0.158132 
92 2 5 0.659268 0.494957 0.173186 
93 1 5 0.620822 0.441775 0.194955 
94 2 5 0.630036 0.439291 0.210204 
95 2 5 0.607014 0.429759 0.195698 
96 2 5 0.631088 0.437004 0.180927 
97 1 5 0.622428 0.509225 0.191232 
98 2 5 0.613128 0.51319 0.175657 
99 2 5 0.611657 0.513522 0.205855 
100 2 5 0.636503 0.519859 0.191399 
101 1 6 0.950661 0.482607 0.325473 
102 2 6 0.945359 0.474269 0.340634 
103 2 6 0.954558 0.470065 0.313006 
104 2 6 0.968356 0.489285 0.328759 
105 1 6 0.933967 0.500506 0.318554 
106 2 6 0.943323 0.508172 0.306284 
107 1 6 0.912127 0.489137 0.308328 
108 2 6 0.91621 0.474767 0.298798 
109 1 6 0.894287 0.482671 0.325483 
110 2 6 0.902252 0.471799 0.338575 
111 2 6 0.885247 0.497912 0.331969 
112 2 6 0.881981 0.472761 0.31671 
113 1 6 0.929273 0.518033 0.337122 
114 2 6 0.919895 0.531937 0.329211 
115 2 6 0.920567 0.510279 0.351766 
116 2 6 0.944413 0.523875 0.342978 
117 1 6 0.901001 0.503648 0.29042 
118 2 6 0.890025 0.492823 0.280602 
119 2 6 0.890124 0.516276 0.296122 
120 2 6 0.914538 0.510022 0.279305 
121 1 7 0.081082 0.402994 0.54925 
122 2 7 0.0809932 0.420906 0.551451 
123 2 7 0.0642044 0.400298 0.542437 
124 2 7 0.0843412 0.395211 0.5652 
125 1 7 0.097526 0.393119 0.53206 
126 2 7 0.0998799 0.375546 0.537953 
127 1 7 0.0878387 0.390857 0.508091 
128 2 7 0.0992782 0.385146 0.495743 
129 1 7 0.0716004 0.371232 0.507667 
130 2 7 0.0795689 0.354895 0.506587 
131 2 7 0.0616674 0.369385 0.522199 
132 2 7 0.0600684 0.372129 0.493647 
133 1 7 0.121153 0.403549 0.533463 
134 2 7 0.134358 0.392999 0.525308 
135 2 7 0.120415 0.420831 0.527781 
136 2 7 0.126727 0.402266 0.550574 
137 1 7 0.0793132 0.412867 0.499108 
138 2 7 0.0921422 0.42489 0.495655 
139 2 7 0.0705249 0.409188 0.483375 
140 2 7 0.0669517 0.422134 0.509419 
141 1 8 0.742075 0.230869 0.917672 
142 2 8 0.756929 0.228171 0.927083 
143 2 8 0.727982 0.221466 0.925567 
144 2 8 0.744422 0.224135 0.900504 
145 1 8 0.736279 0.255106 0.918384 
146 2 8 0.719302 0.254974 0.912571 
147 1 8 0.734387 0.264743 0.942279 
148 2 8 0.72472 0.280084 0.939884 
149 1 8 0.717973 0.251056 0.958009 
150 2 8 0.702433 0.246621 0.948974 
151 2 8 0.727055 0.236798 0.965904 
152 2 8 0.712013 0.260791 0.972291 
153 1 8 0.750577 0.271188 0.902902 
154 2 8 0.746062 0.28913 0.905416 
155 2 8 0.767849 0.270231 0.908298 
156 2 8 0.749029 0.265598 0.88606 
157 1 8 0.756844 0.267524 0.955859 
158 2 8 0.767465 0.279546 0.947307 
159 2 8 0.756032 0.273067 0.972435 
160 2 8 0.768379 0.254317 0.955377 
161 1 9 0.574194 0.586911 0.0182045 
162 2 9 0.565997 0.582665 0.00295005 
163 2 9 0.578133 0.570469 0.0266399 
164 2 9 0.560872 0.593944 0.0283669 
165 1 9 0.594562 0.602925 0.0175023 
166 2 9 0.607721 0.594132 0.00943334 
167 1 9 0.589974 0.625725 0.00517929 
168 2 9 0.60448 0.637972 0.0095813 
169 1 9 0.58954 0.625054 0.979994 
170 2 9 0.582973 0.640624 0.97285 
171 2 9 0.606876 0.621856 0.973189 
172 2 9 0.579084 0.612253 0.974358 
173 1 9 0.602213 0.606016 0.0418266 
174 2 9 0.603965 0.58955 0.050009 
175 2 9 0.617369 0.615795 0.0440991 
176 2 9 0.591065 0.615418 0.0521634 
177 1 9 0.569275 0.637211 0.014302 
178 2 9 0.555859 0.627015 0.00915088 
179 2 9 0.569773 0.635953 0.032141 
180 2 9 0.567172 0.654839 0.0086705 
181 1 10 0.346103 0.726632 0.0899914 
182 2 10 0.337554 0.74117 0.0825691 
183 2 10 0.361454 0.72434 0.0799239 
184 2 10 0.335418 0.712163 0.0858543 
185 1 10 0.351308 0.73056 0.114875 
186 2 10 0.335036 0.738225 0.119961 
187 1 10 0.354298 0.709254 0.128585 
188 2 10 0.340028 0.699204 0.126997 
189 1 10 0.373866 0.695005 0.119997 
190 2 10 0.373829 0.678218 0.12569 
191 2 10 0.373783 0.694779 0.101693 
192 2 10 0.38824 0.702529 0.125171 
193 1 10 0.371113 0.747807 0.117255 
194 2 10 0.387122 0.739629 0.115898 
195 2 10 0.372961 0.760645 0.103909 
196 2 10 0.371797 0.757528 0.13214 
197 1 10 0.355506 0.714769 0.153808 
198 2 10 0.370638 0.722603 0.159357 
199 2 10 0.340662 0.72341 0.158231 
200 2 10 0.356726 0.69879 0.16208 
201 1 11 0.667246 0.384485 0.59914 
202 2 11 0.684395 0.389762 0.596592 
203 2 11 0.658742 0.398201 0.606636 
204 2 11 0.668359 0.371931 0.612452 
205 1 11 0.655831 0.375563 0.576867 
206 2 11 0.655793 0.388886 0.564548 
207 1 11 0.668406 0.355651 0.565745 
208 2 11 0.660446 0.355582 0.549007 
209 1 11 0.693923 0.360363 0.565261 
210 2 11 0.697917 0.377092 0.56037 
211 2 11 0.701656 0.359953 0.582146 
212 2 11 0.703166 0.350361 0.553683 
213 1 11 0.630448 0.371931 0.580947 
214 2 11 0.622701 0.387665 0.584823 
215 2 11 0.622448 0.366472 0.566419 
216 2 11 0.626043 0.358439 0.592782 
217 1 11 0.661681 0.332121 0.574056 
218 2 11 0.643795 0.330147 0.572494 
219 2 11 0.671225 0.319092 0.564144 
220 2 11 0.665388 0.329823 0.591248 
221 1 12 0.908114 0.0734443 0.355946 
222 2 12 0.898352 0.0587931 0.36161 
223 2 12 0.897446 0.087242 0.361651 
224 2 12 0.906193 0.0725762 0.337097 
225 1 12 0.931016 0.0752942 0.366241 
226 2 12 0.934807 0.091253 0.360063 
227 1 12 0.928695 0.0746963 0.393714 
228 2 12 0.918416 0.0897996 0.400079 
229 1 12 0.914553 0.0559072 0.405054 
230 2 12 0.896913 0.0544732 0.402202 
231 2 12 0.922722 0.0399607 0.403129 
232 2 12 0.91577 0.0582415 0.422293 
233 1 12 0.947048 0.0589765 0.356183 
234 2 12 0.942883 0.0414747 0.358934 
235 2 12 0.944842 0.0607182 0.338201 
236 2 12 0.964825 0.0594637 0.362515 
237 1 12 0.953248 0.0743235 0.405795 
238 2 12 0.964013 0.0876651 0.397987 
239 2 12 0.952448 0.0762296 0.424104 
240 2 12 0.96127 0.0583122 0.401116 
241 1 13 0.64801 0.191675 0.794438 
242 2 13 0.631947 0.195717 0.786984 
243 2 13 0.650355 0.201989 0.808834 
244 2 13 0.66056 0.19546 0.781689 
245 1 13 0.650666 0.167133 0.804225 
246 2 13 0.650295 0.156112 0.78943 
247 1 13 0.674027 0.161989 0.814829 
248 2 13 0.674889 0.146138 0.823322 
249 1 13 0.691601 0.162319 0.796973 
250 2 13 0.708634 0.163282 0.802718 
251 2 13 0.688907 0.148355 0.785864 
252 2 13 0.688434 0.176901 0.786933 
253 1 13 0.631529 0.158962 0.818944 
254 2 13 0.629344 0.168664 0.832383 
255 2 13 0.614243 0.159824 0.811842 
256 2 13 0.633205 0.142333 0.824597 
257 1 13 0.677767 0.178932 0.832907 
258 2 13 0.682641 0.195171 0.824342 
259 2 13 0.664909 0.18182 0.844853 
260 2 13 0.692502 0.172357 0.841622 
261 1 14 0.0713071 0.556992 0.0845002 
262 2 14 0.0894274 0.558116 0.0877679 
263 2 14 0.0625296 0.571564 0.0917962 
264 2 14 0.066545 0.541336 0.0933908 
265 1 14 0.0680491 0.552497 0.0589408 
266 2 14 0.0812158 0.540022 0.054221 
267 1 14 0.0442066 0.545934 0.0519692 
268 2 14 0.0327652 0.558959 0.0586772 
269 1 14 0.0395491 0.544391 0.0254017 
270 2 14 0.0482234 0.557607 0.0154082 
271 2 14 0.0423167 0.527625 0.0198388 
272 2 14 0.0218602 0.548396 0.0226286 
273 1 14 0.0764643 0.572911 0.0445983 
274 2 14 0.077982 0.567766 0.027849 
275 2 14 0.0668187 0.5876 0.0462993 
276 2 14 0.0931343 0.578166 0.0489454 
277 1 14 0.0382122 0.524388 0.0627915 
278 2 14 0.0251695 0.515372 0.0542405 
279 2 14 0.051999 0.512731 0.0641608 
280 2 14 0.0315799 0.527889 0.0792742 
281 1 15 0.398283 0.123562 0.460482 
282 2 15 0.380915 0.127284 0.464889 
283 2 15 0.40517 0.127832 0.47679 
284 2 15 0.403553 0.13485 0.44626 
285 1 15 0.398218 0.0979845 0.456209 
286 2 15 0.415563 0.0930854 0.454839 
287 1 15 0.385643 0.0842097 0.473311 
288 2 15 0.388313 0.0667142 0.468356 
289 1 15 0.395318 0.0872868 0.496976 
290 2 15 0.389066 0.102898 0.505027 
291 2 15 0.38749 0.0748984 0.505548 
292 2 15 0.413914 0.0855404 0.49991 
293 1 15 0.391039 0.0906707 0.432462 
294 2 15 0.387433 0.07293 0.430616 
295 2 15 0.374842 0.0990368 0.430033 
296 2 15 0.402564 0.0953109 0.41982 
297 1 15 0.359577 0.0850434 0.472878 
298 2 15 0.353634 0.0835356 0.455539 
299 2 15 0.353558 0.0712615 0.483354 
300 2 15 0.35348 0.100067 0.480024 
301 1 16 0.154943 0.443981 0.327142 
302 2 16 0.170359 0.434845 0.321935 
303 2 16 0.153323 0.457774 0.314908 
304 2 16 0.158156 0.45326 0.342289 
305 1 16 0.133193 0.430017 0.324149 
306 2 16 0.135739 0.416854 0.335085 
307 1 16 0.111216 0.441163 0.333278 
308 2 16 0.098166 0.42899 0.331017 
309 1 16 0.11335 0.446578 0.359059 
310 2 16 0.129366 0.453826 0.363847 
311 2 16 0.10225 0.45916 0.366317 
312 2 16 0.113841 0.430139 0.367769 
313 1 16 0.130501 0.42222 0.299876 
314 2 16 0.113394 0.415 0.297836 
315 2 16 0.133335 0.435564 0.287826 
316 2 16 0.143821 0.410417 0.296223 
317 1 16 0.107096 0.463504 0.320316 
318 2 16 0.108368 0.45986 0.302412 
319 2 16 0.0907362 0.469542 0.323116 
320 2 16 0.120389 0.476203 0.322174 
321 1 17 0.616806 0.610092 0.230817 
322 2 17 0.631034 0.619021 0.223133 
323 2 17 0.606176 0.62227 0.238757 
324 2 17 0.62382 0.602217 0.245894 
325 1 17 0.601681 0.596457 0.215243 
326 2 17 0.591939 0.609141 0.206973 
327 1 17 0.616468 0.586274 0.197435 
328 2 17 0.629939 0.597324 0.193451 
329 1 17 0.629589 0.565273 0.205901 
330 2 17 0.640534 0.569331 0.219917 
331 2 17 0.618618 0.551986 0.210627 
332 2 17 0.638105 0.558695 0.190378 
333 1 17 0.585692 0.580132 0.225537 
334 2 17 0.57279 0.572515 0.215596 
335 2 17 0.592074 0.565253 0.23246 
336 2 17 0.577866 0.587902 0.239504 
337 1 17 0.60256 0.583394 0.176156 
338 2 17 0.590856 0.57081 0.178753 
339 2 17 0.592886 0.598048 0.170571 
340 2 17 0.613179 0.578842 0.162332 
341 1 18 0.209176 0.0406476 0.964156 
342 2 18 0.192272 0.0421446 0.971514 
343 2 18 0.210708 0.0250889 0.955775 
344 2 18 0.219309 0.0396154 0.979802 
345 1 18 0.214237 0.0606114 0.948515 
346 2 18 0.209 0.0752713 0.956672 
347 1 18 0.239739 0.0622513 0.942862 
348 2 18 0.248815 0.0636554 0.958638 
349 1 18 0.250089 0.0421349 0.930767 
350 2 18 0.263096 0.0357567 0.941685 
351 2 18 0.238163 0.0290159 0.926574 
352 2 18 0.258994 0.0473217 0.915028 
353 1 18 0.197912 0.0618637 0.929015 
354 2 18 0.199542 0.04684 0.919059 
355 2 18 0.18009 0.0636559 0.933441 
356 2 18 0.200999 0.0761192 0.919433 
357 1 18 0.24433 0.0849351 0.93303 
358 2 18 0.262274 0.0859403 0.933347 
359 2 18 0.238272 0.0859659 0.916276 
360 2 18 0.238393 0.0986445 0.944721 
361 1 19 0.848554 0.232733 0.92241 
362 2 19 0.85523 0.225909 0.906717 
363 2 19 0.861236 0.232425 0.935282 
364 2 19 0.83464 0.222687 0.927801 
365 1 19 0.842509 0.258021 0.918782 
366 2 19 0.857809 0.266511 0.913983 
367 1 19 0.823381 0.260832 0.900565 
368 2 19 0.814269 0.27679 0.904126 
369 1 19 0.835218 0.260959 0.877639 
370 2 19 0.847958 0.274896 0.875477 
371 2 19 0.844774 0.245923 0.875548 
372 2 19 0.82424 0.260709 0.862512 
373 1 19 0.835119 0.266748 0.942109 
374 2 19 0.847204 0.262126 0.954885 
375 2 19 0.836827 0.284977 0.941215 
376 2 19 0.819284 0.260466 0.949164 
377 1 19 0.80357 0.243849 0.902544 
378 2 19 0.795133 0.246132 0.919517 
379 2 19 0.790959 0.247431 0.889573 
380 2 19 0.807025 0.225941 0.902216 
381 1 20 0.399186 0.975773 0.778708 
382 2 20 0.410704 0.987704 0.771979 
383 2 20 0.40699 0.964239 0.790265 
384 2 20 0.392808 0.966616 0.763949 
385 1 20 0.379465 0.985857 0.791816 
386 2 20 0.386942 0.991201 0.807815 
387 1 20 0.36947 0.00596848 0.779214 
388 2 20 0.369704 0.00398203 0.761578 
389 1 20 0.344577 0.010535 0.783136 
390 2 20 0.334606 0.995893 0.776868 
391 2 20 0.341239 0.0158667 0.800759 
392 2 20 0.337432 0.0241846 0.774255 
393 1 20 0.362443 0.966139 0.79604 
394 2 20 0.350023 0.970079 0.807689 
395 2 20 0.352575 0.96323 0.780295 
396 2 20 0.372776 0.952576 0.800605 
397 1 20 0.38326 0.0272077 0.785191 
398 2 20 0.379401 0.0306348 0.803221 
399 2 20 0.401941 0.0265383 0.783079 
400 2 20 0.377387 0.0424069 0.776612 
401 1 21 0.0321511 0.259146 0.219657 
402 2 21 0.0386579 0.248726 0.233307 
403 2 21 0.0157135 0.252618 0.215603 
404 2 21 0.043483 0.255736 0.206573 
405 1 21 0.0315552 0.283006 0.227881 
406 2 21 0.0250059 0.281452 0.244111 
407 1 21 0.0543887 0.293701 0.234286 
408 2 21 0.0623381 0.29818 0.218395 
409 1 21 0.0507486 0.314513 0.248772 
410 2 21 0.0460386 0.328932 0.238831 
411 2 21 0.0382184 0.312541 0.261761 
412 2 21 0.0672036 0.31802 0.255647 
413 1 21 0.0169231 0.298288 0.212728 
414 2 21 0.0241822 0.298922 0.195849 
415 2 21 0.000234417 0.29186 0.212259 
416 2 21 0.0158711 0.314919 0.218302 
417 1 21 0.0708952 0.277637 0.247504 
418 2 21 0.063183 0.27141 0.261758 
419 2 21 0.0788468 0.26328 0.236923 
420 2 21 0.0842533 0.287742 0.254157 
421 1 22 0.717945 0.209207 0.110394 
422 2 22 0.707275 0.213548 0.125018 
423 2 22 0.723338 0.224818 0.101946 
424 2 22 0.705564 0.199764 0.100068 
425 1 22 0.739532 0.197565 0.117272 
426 2 22 0.73776 0.187441 0.130811 
427 1 22 0.74883 0.180817 0.0999219 
428 2 22 0.765721 0.175899 0.103937 
429 1 22 0.73637 0.15905 0.0988348 
430 2 22 0.744203 0.144916 0.0893424 
431 2 22 0.73078 0.152747 0.115156 
432 2 22 0.721294 0.161415 0.0885652 
433 1 22 0.755625 0.216542 0.124163 
434 2 22 0.749625 0.226136 0.139117 
435 2 22 0.771192 0.208662 0.126623 
436 2 22 0.760353 0.227246 0.110945 
437 1 22 0.749696 0.191506 0.0767686 
438 2 22 0.754171 0.1788 0.0634281 
439 2 22 0.734145 0.199329 0.0702599 
440 2 22 0.761607 0.205398 0.0774442 
441 1 23 0.0762122 0.113015 0.631847 
442 2 23 0.0637971 0.122202 0.641543 
443 2 23 0.0704641 0.109904 0.614527 
444 2 23 0.0781717 0.0968877 0.641599 
445 1 23 0.0975983 0.128379 0.633762 
446 2 23 0.101113 0.130307 0.652008 
447 1 23 0.118869 0.121963 0.621176 
448 2 23 0.130785 0.137107 0.621716 
449 1 23 0.131972 0.104239 0.634012 
450 2 23 0.124447 0.0881296 0.636145 
451 2 23 0.147232 0.100934 0.623182 
452 2 23 0.137696 0.110089 0.650213 
453 1 23 0.0905904 0.151803 0.626426 
454 2 23 0.103532 0.163071 0.626694 
455 2 23 0.0849448 0.151981 0.608437 
456 2 23 0.0797504 0.159323 0.637869 
457 1 23 0.114505 0.115964 0.596573 
458 2 23 0.128158 0.106778 0.589393 
459 2 23 0.100843 0.105552 0.594073 
460 2 23 0.113485 0.130341 0.586251 
461 1 24 0.994524 0.451394 0.281509 
462 2 24 0.984035 0.457489 0.268829 
463 2 24 0.99073 0.433048 0.282505 
464 2 24 0.988015 0.458826 0.297047 
465 1 24 0.0195871 0.455918 0.278563 
466 2 24 0.0231475 0.473318 0.284849 
467 1 24 0.0358137 0.438605 0.290726 
468 2 24 0.0282103 0.431955 0.306084 
469 1 24 0.0422847 0.416427 0.279069 
470 2 24 0.0504421 0.4204 0.262899 
471 2 24 0.0544951 0.407176 0.290052 
472 2 24 0.0281192 0.405619 0.273903 
473 1 24 0.0250628 0.45838 0.252872 
474 2 24 0.0128746 0.466454 0.241882 
475 2 24 0.0395953 0.468077 0.250819 
476 2 24 0.0255088 0.442137 0.245754 
477 1 24 0.0572982 0.448913 0.299197 
478 2 24 0.0660629 0.453684 0.284037 
479 2 24 0.0552256 0.462667 0.309762 
480 2 24 0.0693866 0.436794 0.306721 
481 1 25 0.221022 0.0859133 0.382206 
482 2 25 0.231174 0.0709497 0.381113 
483 2 25 0.220282 0.0956859 0.367415 
484 2 25 0.230097 0.0973833 0.39353 
485 1 25 0.19638 0.0804251 0.388868 
486 2 25 0.186632 0.0807973 0.373966 
487 1 25 0.192426 0.0567245 0.397733 
488 2 25 0.200258 0.0457485 0.384185 
489 1 25 0.205841 0.0525399 0.419845 
490 2 25 0.196005 0.0599318 0.433195 
491 2 25 0.20859 0.034815 0.422471 
492 2 25 0.221568 0.0608609 0.420811 
493 1 25 0.18772 0.0993454 0.405272 
494 2 25 0.19674 0.10023 0.420789 
495 2 25 0.186529 0.114136 0.394031 
496 2 25 0.169993 0.095832 0.408835 
497 1 25 0.167269 0.0509479 0.399646 
498 2 25 0.164609 0.0342403 0.405611 
499 2 25 0.161677 0.0620419 0.412761 
500 2 25 0.15873 0.0542229 0.384809 
501 1 26 0.823723 0.9057 0.198893 
502 2 26 0.824717 0.898803 0.215858 
503 2 26 0.806382 0.908973 0.194958 
504 2 26 0.83229 0.895837 0.186362 
505 1 26 0.834895 0.929432 0.19962 
506 2 26 0.850975 0.925227 0.205563 
507 1 26 0.836529 0.941218 0.176194 
508 2 26 0.838704 0.928976 0.16337 
509 1 26 0.813075 0.950402 0.169213 
510 2 26 0.810653 0.949558 0.15045 
511 2 26 0.797075 0.942509 0.17581 
512 2 26 0.810533 0.96772 0.174357 
513 1 26 0.824405 0.941729 0.218662 
514 2 26 0.807642 0.949391 0.21322 
515 2 26 0.823288 0.931499 0.233532 
516 2 26 0.833501 0.955768 0.224284 
517 1 26 0.855088 0.957993 0.175866 
518 2 26 0.857109 0.96774 0.160825 
519 2 26 0.855395 0.970576 0.189054 
520 2 26 0.871814 0.950233 0.175575 
521 1 27 0.650896 0.964038 0.684354 
522 2 27 0.668861 0.96842 0.681866 
523 2 27 0.651228 0.947459 0.689269 
524 2 27 0.642935 0.964387 0.66914 
525 1 27 0.638026 0.979267 0.701541 
526 2 27 0.621842 0.974346 0.701602 
527 1 27 0.645676 0.973324 0.725354 
528 2 27 0.6546 0.958117 0.72353 
529 1 27 0.665031 0.988637 0.735314 
530 2 27 0.657734 0.00472278 0.739248 
531 2 27 0.673018 0.982043 0.750345 
532 2 27 0.67818 0.990365 0.722041 
533 1 27 0.636164 0.00396713 0.694645 
534 2 27 0.630584 0.00520124 0.676994 
535 2 27 0.623992 0.0143421 0.704311 
536 2 27 0.652362 0.013042 0.695896 
537 1 27 0.62681 0.967949 0.742742 
538 2 27 0.616829 0.955285 0.735656 
539 2 27 0.632966 0.96199 0.758914 
540 2 27 0.616545 0.982707 0.745723 
541 1 28 0.827226 0.627583 0.148933 
542 2 28 0.829421 0.626014 0.13103 
543 2 28 0.809441 0.625479 0.153681 
544 2 28 0.828843 0.645666 0.152042 
545 1 28 0.844658 0.613935 0.163028 
546 2 28 0.841343 0.59658 0.156766 
547 1 28 0.86812 0.623871 0.157814 
548 2 28 0.866784 0.642443 0.160711 
549 1 28 0.887638 0.617623 0.172506 
550 2 28 0.886315 0.620837 0.190737 
551 2 28 0.893015 0.600199 0.171387 
552 2 28 0.900742 0.628067 0.167329 
553 1 28 0.836979 0.614885 0.187888 
554 2 28 0.842854 0.602274 0.199574 
555 2 28 0.844126 0.629513 0.194576 
556 2 28 0.81807 0.614411 0.187534 
557 1 28 0.874756 0.619081 0.132555 
558 2 28 0.862617 0.624277 0.11997 
559 2 28 0.890537 0.626421 0.131778 
560 2 28 0.874307 0.601997 0.128706 
561 1 29 0.952394 0.933518 0.460525 
562 2 29 0.946181 0.930294 0.477357 
563 2 29 0.962065 0.949307 0.458019 
564 2 29 0.939023 0.939248 0.450032 
565 1 29 0.96677 0.913665 0.452221 
566 2 29 0.973216 0.917508 0.435904 
567 1 29 0.985267 0.904956 0.46684 
568 2 29 0.994503 0.919508 0.472377 
569 1 29 0.978309 0.891717 0.488751 
570 2 29 0.993555 0.884665 0.497097 
571 2 29 0.968877 0.90259 0.500426 
572 2 29 0.968011 0.876167 0.488107 
573 1 29 0.949294 0.895932 0.445532 
574 2 29 0.934826 0.903735 0.436661 
575 2 29 0.957325 0.883559 0.434299 
576 2 29 0.943458 0.886791 0.460473 
577 1 29 0.00234944 0.891235 0.4559 
578 2 29 0.00858065 0.89752 0.439413 
579 2 29 0.017882 0.888656 0.466268 
580 2 29 0.995825 0.875639 0.450478 
581 1 30 0.478641 0.424551 0.802052 
582 2 30 0.461182 0.426963 0.797473 
583 2 30 0.480187 0.421088 0.819763 
584 2 30 0.488826 0.438981 0.797675 
585 1 30 0.486133 0.403591 0.791687 
586 2 30 0.473619 0.391201 0.795428 
587 1 30 0.486995 0.407819 0.765917 
588 2 30 0.470578 0.4083 0.760643 
589 1 30 0.501032 0.428017 0.758388 
590 2 30 0.519454 0.427692 0.765125 
591 2 30 0.503564 0.428057 0.739667 
592 2 30 0.492899 0.442768 0.759777 
593 1 30 0.509015 0.396897 0.800107 
594 2 30 0.512433 0.38125 0.793567 
595 2 30 0.521528 0.409978 0.795875 
596 2 30 0.509431 0.395517 0.818628 
597 1 30 0.495697 0.385843 0.751552 
598 2 30 0.48725 0.370376 0.757778 
599 2 30 0.494867 0.386573 0.733648 
600 2 30 0.513584 0.382819 0.755114 
601 1 31 0.60451 0.41063 0.0239911 
602 2 31 0.586823 0.412922 0.0270462 
603 2 31 0.611442 0.394504 0.0301288 
604 2 31 0.614339 0.425165 0.0332129 
605 1 31 0.608737 0.409675 0.998385 
606 2 31 0.627587 0.408531 0.994149 
607 1 31 0.599065 0.387891 0.987895 
608 2 31 0.603973 0.372676 0.997446 
609 1 31 0.573277 0.389941 0.986135 
610 2 31 0.569825 0.404502 0.976712 
611 2 31 0.565808 0.376846 0.975216 
612 2 31 0.564357 0.389105 0.00192321 
613 1 31 0.601663 0.433068 0.9887 
614 2 31 0.584416 0.436851 0.994472 
615 2 31 0.610222 0.446981 0.996533 
616 2 31 0.602796 0.431623 0.970963 
617 1 31 0.608679 0.383068 0.965311 
618 2 31 0.599594 0.367942 0.959281 
619 2 31 0.603369 0.395879 0.952802 
620 2 31 0.626522 0.378475 0.966792 
621 1 32 0.70394 0.441137 0.0456622 
622 2 32 0.717771 0.430053 0.0426408 
623 2 32 0.698558 0.445146 0.0285048 
624 2 32 0.71194 0.454622 0.0553803 
625 1 32 0.683182 0.432808 0.0584528 
626 2 32 0.687491 0.428824 0.0769511 
627 1 32 0.6656 0.452547 0.0583592 
628 2 32 0.674352 0.467472 0.063823 
629 1 32 0.654651 0.457888 0.0346954 
630 2 32 0.653812 0.475675 0.0319188 
631 2 32 0.665404 0.450117 0.0215039 
632 2 32 0.637217 0.451652 0.0323707 
633 1 32 0.671841 0.411229 0.0483208 
634 2 32 0.663732 0.415006 0.0321329 
635 2 32 0.682623 0.397447 0.0465557 
636 2 32 0.657906 0.405733 0.0595202 
637 1 32 0.647427 0.448989 0.0753665 
638 2 32 0.652768 0.450655 0.0924603 
639 2 32 0.6343 0.461995 0.0731923 
640 2 32 0.640459 0.431823 0.0765273 
641 1 33 0.760631 0.0818023 0.466032 
642 2 33 0.775378 0.0717794 0.465247 
643 2 33 0.758 0.0859651 0.483848 
644 2 33 0.746421 0.0706265 0.462635 
645 1 33 0.762703 0.102453 0.450063 
646 2 33 0.747574 0.112223 0.450478 
647 1 33 0.781138 0.118776 0.457336 
648 2 33 0.780868 0.135278 0.450062 
649 1 33 0.779263 0.12554 0.482618 
650 2 33 0.782926 0.111685 0.494534 
651 2 33 0.793862 0.137424 0.485942 
652 2 33 0.762505 0.131009 0.486434 
653 1 33 0.764562 0.0943936 0.425957 
654 2 33 0.74974 0.0847923 0.420338 
655 2 33 0.763797 0.109842 0.416446 
656 2 33 0.778969 0.0848519 0.422053 
657 1 33 0.804692 0.111308 0.450938 
658 2 33 0.808781 0.114822 0.432493 
659 2 33 0.817701 0.117339 0.461718 
660 2 33 0.803216 0.0930975 0.451152 
661 1 34 0.306169 0.15685 0.991036 
662 2 34 0.304393 0.150948 0.973689 
663 2 34 0.306534 0.174949 0.990883 
664 2 34 0.321189 0.150443 0.995991 
665 1 34 0.286132 0.150045 0.00354401 
666 2 34 0.271389 0.157398 0.994612 
667 1 34 0.282277 0.123801 0.00355255 
668 2 34 0.26885 0.121442 0.0148958 
669 1 34 0.274181 0.114382 0.98151 
670 2 34 0.271833 0.0959626 0.981672 
671 2 34 0.258783 0.123001 0.977587 
672 2 34 0.287373 0.11759 0.969158 
673 1 34 0.283878 0.157006 0.0284665 
674 2 34 0.286914 0.175685 0.029177 
675 2 34 0.267262 0.153452 0.0355692 
676 2 34 0.296443 0.148641 0.0391998 
677 1 34 0.302071 0.10801 0.0109851 
678 2 34 0.318382 0.1109 0.00299557 
679 2 34 0.305404 0.108869 0.0283549 
680 2 34 0.295666 0.090425 0.00862692 
681 1 35 0.143328 0.14513 0.759192 
682 2 35 0.156625 0.134404 0.76653 
683 2 35 0.134906 0.153392 0.772656 
684 2 35 0.13132 0.134627 0.750876 
685 1 35 0.154036 0.163722 0.744769 
686 2 35 0.140024 0.173917 0.73736 
687 1 35 0.168633 0.181414 0.755364 
688 2 35 0.184749 0.173251 0.759975 
689 1 35 0.174333 0.201252 0.739624 
690 2 35 0.160383 0.20537 0.730311 
691 2 35 0.181677 0.21512 0.749429 
692 2 35 0.186983 0.196601 0.726847 
693 1 35 0.16677 0.151907 0.725361 
694 2 35 0.158679 0.137947 0.718104 
695 2 35 0.169659 0.163847 0.711766 
696 2 35 0.183347 0.145432 0.731404 
697 1 35 0.158652 0.188956 0.778159 
698 2 35 0.143925 0.199236 0.773995 
699 2 35 0.155741 0.177493 0.791305 
700 2 35 0.171345 0.199422 0.785725 
701 1 36 0.0136004 0.979046 0.354596 
702 2 36 -0.000235266 0.968481 0.350668 
703 2 36 0.0144127 0.993966 0.343217 
704 2 36 0.0298408 0.969799 0.353013 
705 1 36 0.0122158 0.987085 0.378702 
706 2 36 0.0244681 1.00082 0.380272 
707 1 36 0.988543 0.997921 0.384199 
708 2 36 0.982195 0.00899793 0.370391 
709 1 36 0.969298 0.980685 0.387173 
710 2 36 0.954505 0.990079 0.38147 
711 2 36 0.971743 0.966878 0.375363 
712 2 36 0.967301 0.972248 0.402989 
713 1 36 0.0175434 0.96558 0.393019 
714 2 36 0.0360647 0.961335 0.394602 
715 2 36 0.0146143 0.970006 0.410297 
716 2 36 0.00880724 0.948994 0.390744 
717 1 36 0.989249 0.0132863 0.403937 
718 2 36 0.993047 0.00600907 0.420599 
719 2 36 1.00038 0.0268075 0.403407 
720 2 36 0.97186 0.0191945 0.408381 
721 1 37 0.512825 0.0763587 0.868195 
722 2 37 0.522637 0.0871472 0.87917 
723 2 37 0.498592 0.0688129 0.876347 
724 2 37 0.526123 0.0638081 0.863975 
725 1 37 0.503522 0.0841759 0.845088 
726 2 37 0.496913 0.0694886 0.836743 
727 1 37 0.48642 0.104165 0.847207 
728 2 37 0.484286 0.110391 0.830493 
729 1 37 0.463408 0.0960354 0.853777 
730 2 37 0.45081 0.108944 0.85591 
731 2 37 0.457502 0.0827534 0.84195 
732 2 37 0.464434 0.0885315 0.871185 
733 1 37 0.524962 0.090127 0.830594 
734 2 37 0.536545 0.0773386 0.830036 
735 2 37 0.522228 0.0940812 0.813129 
736 2 37 0.532573 0.106909 0.834032 
737 1 37 0.493551 0.123358 0.862276 
738 2 37 0.481646 0.13653 0.862471 
739 2 37 0.496678 0.120599 0.879999 
740 2 37 0.508195 0.130388 0.854906 
741 1 38 0.98481 0.434944 0.676623 
742 2 38 0.970648 0.443577 0.68287 
743 2 38 0.978345 0.424776 0.662259 
744 2 38 0.991176 0.420802 0.68747 
745 1 38 0.00356137 0.451701 0.668016 
746 2 38 0.0169445 0.441102 0.66402 
747 1 38 0.995805 0.464053 0.646606 
748 2 38 0.00664856 0.478726 0.645102 
749 1 38 1.00018 0.450015 0.625379 
750 2 38 0.0163178 0.451549 0.617328 
751 2 38 0.996124 0.432241 0.625368 
752 2 38 0.987525 0.457137 0.613777 
753 1 38 0.0120586 0.466095 0.686732 
754 2 38 0.0152495 0.456082 0.701587 
755 2 38 0.0273779 0.476803 0.681909 
756 2 38 1.00035 0.477833 0.691803 
757 1 38 0.97161 0.472045 0.648714 
758 2 38 0.968822 0.484187 0.635588 
759 2 38 0.959917 0.457617 0.645408 
760 2 38 0.968211 0.479589 0.665249 
761 1 39 0.606953 0.600665 0.862704 
762 2 39 0.61755 0.613622 0.869972 
763 2 39 0.597151 0.595147 0.876475 
764 2 39 0.617704 0.588633 0.855011 
765 1 39 0.589634 0.611776 0.846513 
766 2 39 0.576907 0.616899 0.859144 
767 1 39 0.5988 0.632246 0.832522 
768 2 39 0.611561 0.640988 0.843055 
769 1 39 0.609747 0.627715 0.809601 
770 2 39 0.598891 0.61776 0.798851 
771 2 39 0.612994 0.643053 0.799216 
772 2 39 0.625396 0.619009 0.811063 
773 1 39 0.581365 0.591753 0.831708 
774 2 39 0.572572 0.580147 0.843522 
775 2 39 0.568778 0.597786 0.819014 
776 2 39 0.594581 0.58269 0.823493 
777 1 39 0.578823 0.647544 0.829333 
778 2 39 0.56481 0.641018 0.819863 
779 2 39 0.572442 0.651352 0.845643 
780 2 39 0.585461 0.661245 0.819674 
781 1 40 0.493534 0.717807 0.961801 
782 2 40 0.48524 0.709784 0.947269 
783 2 40 0.480072 0.724895 0.972156 
784 2 40 0.503517 0.731502 0.95437 
785 1 40 0.508268 0.701782 0.974786 
786 2 40 0.513109 0.709971 0.991013 
787 1 40 0.497955 0.678235 0.979639 
788 2 40 0.483387 0.681605 0.990702 
789 1 40 0.491623 0.663271 0.958492 
790 2 40 0.505551 0.659514 0.947157 
791 2 40 0.483807 0.646648 0.96279 
792 2 40 0.478818 0.671854 0.947344 
793 1 40 0.531206 0.699396 0.963636 
794 2 40 0.543867 0.689115 0.972934 
795 2 40 0.530116 0.694005 0.947141 
796 2 40 0.536325 0.716877 0.965158 
797 1 40 0.512414 0.664331 0.995778 
798 2 40 0.527898 0.659728 0.988926 
799 2 40 0.517657 0.674503 0.00988648 
800 2 40 0.503518 0.649242 0.0023318 
801 1 41 0.683692 0.210641 0.0428305 
802 2 41 0.686705 0.211658 0.0616968 
803 2 41 0.697296 0.219999 0.0344825 
804 2 41 0.669577 0.219561 0.0362 
805 1 41 0.679583 0.186283 0.0353567 
806 2 41 0.674366 0.185798 0.0174904 
807 1 41 0.700314 0.169185 0.0373648 
808 2 41 0.707361 0.167822 0.0544112 
809 1 41 0.694194 0.144527 0.0326182 