ITEM: TIMESTEP
20000000
ITEM: NUMBER OF ATOMS
1000
ITEM: BOX BOUNDS pp pp pp
2.9104671895679501e-02 6.4520895328146125e+01
2.9104671895679501e-02 6.4520895328146125e+01
2.9104671895679501e-02 6.4520895328146125e+01
ITEM: ATOMS id type mol xs ys zs 
1 1 1 0.219535 0.562 0.552912 
2 1 2 0.952952 0.567617 0.205481 
3 1 3 0.865313 0.456808 0.93496 
4 1 4 0.329956 0.369196 0.336434 
5 1 5 0.766431 0.0730266 0.128668 
6 1 6 0.456655 0.88384 0.211886 
7 1 7 0.683149 0.51921 0.784248 
8 1 8 0.137671 0.0861733 0.00841289 
9 1 9 0.811042 0.12217 0.322703 
10 1 10 0.11781 0.956368 0.161353 
11 1 11 0.20501 0.309781 0.461847 
12 1 12 0.713155 0.73255 0.931897 
13 1 13 0.507523 0.459672 0.791025 
14 1 14 0.555813 0.572384 0.372489 
15 1 15 0.427848 0.651691 0.0699034 
16 1 16 0.667992 0.383897 0.0420434 
17 1 17 0.436129 0.811732 0.164857 
18 1 18 0.508282 0.586517 0.695816 
19 1 19 0.814867 0.151748 0.983019 
20 1 20 0.647405 0.53362 0.158452 
21 1 21 0.524438 0.0652587 0.692548 
22 1 22 0.356218 0.0574441 0.799007 
23 1 23 0.670451 0.173271 0.701196 
24 1 24 0.70042 0.697656 0.776367 
25 1 25 0.326389 0.883593 0.286696 
26 1 26 0.0967032 0.355009 0.0802829 
27 1 27 0.438877 0.983418 0.112637 
28 1 28 0.904379 0.654828 0.327841 
29 1 29 0.107234 0.0560386 0.810169 
30 1 30 0.521756 0.726542 0.260227 
31 1 31 0.922066 0.513229 0.893725 
32 1 32 0.255617 0.0981744 0.124865 
33 1 33 0.618078 0.412218 0.535831 
34 1 34 0.635766 0.569432 0.28199 
35 1 35 0.749949 0.848722 0.304606 
36 1 36 0.438783 0.755951 0.874713 
37 1 37 0.910907 0.321068 0.20868 
38 1 38 0.406277 0.595636 0.160835 
39 1 39 0.25613 0.205994 0.972593 
40 1 40 0.880689 0.331261 0.0472351 
41 1 41 0.102484 0.662343 0.637504 
42 1 42 0.588568 0.118509 0.851342 
43 1 43 0.962109 0.0329143 0.970805 
44 1 44 0.461195 0.645886 0.520265 
45 1 45 0.734428 0.206088 0.936273 
46 1 46 0.601082 0.419614 0.730383 
47 1 47 0.941592 0.771468 0.923237 
48 1 48 0.466475 0.120658 0.956577 
49 1 49 0.17078 0.541483 0.261642 
50 1 50 0.601338 0.564925 0.897112 
51 1 51 0.105329 0.192544 0.444005 
52 1 52 0.433311 0.997142 0.666902 
53 1 53 0.0506709 0.307541 0.358057 
54 1 54 0.739933 0.342969 0.494352 
55 1 55 0.706417 0.531083 0.337524 
56 1 56 0.448708 0.969142 0.457799 
57 1 57 0.125378 0.409776 0.170796 
58 1 58 0.448493 0.558052 0.967714 
59 1 59 0.410836 0.369005 0.833273 
60 1 60 0.44017 0.802354 0.482119 
61 1 61 0.857665 0.168297 0.640076 
62 1 62 0.867138 0.674501 0.582607 
63 1 63 0.411035 0.144156 0.0574356 
64 1 64 0.870512 0.226437 0.0746989 
65 1 65 0.811107 0.85894 0.590903 
66 1 66 0.0139636 0.109535 0.786113 
67 1 67 0.682765 0.796522 0.914535 
68 1 68 0.259595 0.203946 0.517216 
69 1 69 0.05651 0.788941 0.35283 
70 1 70 0.481931 0.800108 0.37964 
71 1 71 0.881292 0.554963 0.480697 
72 1 72 0.373117 0.972237 0.712813 
73 1 73 0.0777644 0.662039 0.462684 
74 1 74 0.799684 0.0399224 0.959928 
75 1 75 0.718599 0.41982 0.160114 
76 1 76 0.758618 0.948205 0.406751 
77 1 77 0.178291 0.856704 0.850169 
78 1 78 0.243548 0.780601 0.454303 
79 1 79 0.335451 0.0174865 0.914765 
80 1 80 0.948697 0.452913 0.206573 
81 1 81 0.241153 0.393521 0.595101 
82 1 82 0.762093 0.204005 0.65777 
83 1 83 0.321944 0.266866 0.938491 
84 1 84 0.271331 0.493095 0.966952 
85 1 85 0.381789 0.792066 0.0523886 
86 1 86 0.392062 0.976839 0.944057 
87 1 87 0.996328 0.321654 0.0894083 
88 1 88 0.737556 0.06081 0.393809 
89 1 89 0.88433 0.109748 0.917785 
90 1 90 0.742802 0.764694 0.212772 
91 1 91 0.80779 0.740003 0.035232 
92 1 92 0.134902 0.544961 0.658325 
93 1 93 0.741364 0.162799 0.36883 
94 1 94 0.721581 0.352275 0.563694 
95 1 95 0.0429176 0.953049 0.0820933 
96 1 96 0.341679 0.339198 0.674066 
97 1 97 0.646585 0.25232 0.598833 
98 1 98 0.854499 0.0749588 0.596124 
99 1 99 0.254279 0.390984 0.0686062 
100 1 100 0.632694 0.233058 0.816799 
101 1 101 0.368377 0.318796 0.771161 
102 1 102 0.948042 0.678453 0.246729 
103 1 103 0.190808 0.590473 0.0683375 
104 1 104 0.56278 0.917648 0.742032 
105 1 105 0.444469 0.353977 0.591865 
106 1 106 0.564814 0.799729 0.955966 
107 1 107 0.735357 0.639628 0.667744 
108 1 108 0.30752 0.313685 0.85967 
109 1 109 0.313002 0.827918 0.46329 
110 1 110 0.793886 0.628554 0.576794 
111 1 111 0.902733 0.631434 0.857359 
112 1 112 0.918343 0.121495 0.376787 
113 1 113 0.774349 0.671389 0.429358 
114 1 114 0.39578 0.772111 0.808597 
115 1 115 0.0643032 0.114995 0.508449 
116 1 116 0.619998 0.3205 0.246756 
117 1 117 0.54672 0.415733 0.192841 
118 1 118 0.844093 0.0850138 0.203397 
119 1 119 0.137839 0.654275 0.223284 
120 1 120 0.893799 0.122786 0.100854 
121 1 121 0.948178 0.695204 0.0519971 
122 1 122 0.267701 0.986762 0.802566 
123 1 123 0.975715 0.812976 0.250956 
124 1 124 0.492293 0.703476 0.585717 
125 1 125 0.0246914 0.209372 0.607 
126 1 126 0.00800373 0.203391 0.384201 
127 1 127 0.255719 0.853824 0.844272 
128 1 128 0.496437 0.643618 0.161812 
129 1 129 0.711261 0.769718 0.835096 
130 1 130 0.361167 0.461728 0.582201 
131 1 131 0.616884 0.633644 0.816853 
132 1 132 0.880608 0.838655 0.996705 
133 1 133 0.618231 0.874903 0.471367 
134 1 134 0.0454654 0.0495521 0.550014 
135 1 135 0.20107 0.802124 0.59538 
136 1 136 0.0777554 0.544858 0.897379 
137 1 137 0.642323 0.727606 0.889652 
138 1 138 0.625186 0.158373 0.624649 
139 1 139 0.205208 0.609166 0.637764 
140 1 140 0.622895 0.710559 0.756052 
141 1 141 0.496523 0.261429 0.458906 
142 1 142 0.139089 0.6873 0.144847 
143 1 143 0.763259 0.924847 0.224286 
144 1 144 0.611486 0.320019 0.857372 
145 1 145 0.153119 0.909433 0.0737024 
146 1 146 0.455564 0.474178 0.270725 
147 1 147 0.937841 0.328412 0.690103 
148 1 148 0.430866 0.619668 0.708904 
149 1 149 0.771496 0.873874 0.995956 
150 1 150 0.592251 0.59949 0.134409 
151 1 151 0.784735 0.129265 0.861837 
152 1 152 0.959485 0.759039 0.825684 
153 1 153 0.761056 0.637536 0.969927 
154 1 154 0.92423 0.0545871 0.72564 
155 1 155 0.0260045 0.18911 0.466379 
156 1 156 0.107533 0.54568 0.560784 
157 1 157 0.432289 0.17185 0.448782 
158 1 158 0.209057 0.898204 0.748645 
159 1 159 0.713467 0.543876 0.713441 
160 1 160 0.251536 0.0757561 0.752331 
161 1 161 0.126994 0.33596 0.383571 
162 1 162 0.534984 0.217108 0.14034 
163 1 163 0.573886 0.984049 0.10573 
164 1 164 0.434429 0.0650935 0.42059 
165 1 165 0.524484 0.687488 0.752659 
166 1 166 0.468597 0.304567 0.777514 
167 1 167 0.812772 0.230119 0.318981 
168 1 168 0.941914 0.763591 0.705849 
169 1 169 0.448842 0.873994 0.0640071 
170 1 170 0.997085 0.741627 0.992102 
171 1 171 0.81368 0.344399 0.656126 
172 1 172 0.781875 0.354561 0.192154 
173 1 173 0.230279 0.756554 0.361812 
174 1 174 0.116678 0.944685 0.562336 
175 1 175 0.821585 0.225581 0.690423 
176 1 176 0.388704 0.211872 0.523908 
177 1 177 0.732815 0.81967 0.7041 
178 1 178 0.539845 0.0374578 0.870459 
179 1 179 0.0628923 0.481606 0.688981 
180 1 180 0.660837 0.839229 0.231721 
181 1 181 0.712924 0.832046 0.612791 
182 1 182 0.555584 0.797376 0.663865 
183 1 183 0.108002 0.704728 0.359989 
184 1 184 0.4204 0.235424 0.817412 
185 1 185 0.367001 0.0298816 0.612895 
186 1 186 0.215566 0.465269 0.545546 
187 1 187 0.254663 0.0896826 0.0278381 
188 1 188 0.760522 0.682823 0.223074 
189 1 189 0.880648 0.261728 0.912527 
190 1 190 0.58046 0.244648 0.0244188 
191 1 191 0.0395079 0.194046 0.842826 
192 1 192 0.207926 0.413403 0.937654 
193 1 193 0.805072 0.338707 0.973663 
194 1 194 0.882349 0.665036 0.0692797 
195 1 195 0.35564 0.110472 0.927475 
196 1 196 0.609796 0.942584 0.299494 
197 1 197 0.13451 0.0669135 0.269677 
198 1 198 0.303784 0.958655 0.440196 
199 1 199 0.263465 0.708123 0.495881 
200 1 200 0.935803 0.861752 0.558322 
201 1 201 0.0750895 0.142666 0.927185 
202 1 202 0.657823 0.200894 0.487405 
203 1 203 0.485904 0.33162 0.875159 
204 1 204 0.572307 0.689908 0.460375 
205 1 205 0.0271188 0.0664271 0.993288 
206 1 206 0.323669 0.764457 0.282812 
207 1 207 0.45894 0.609777 0.625246 
208 1 208 0.25796 0.657601 0.973777 
209 1 209 0.201766 0.761371 0.847895 
210 1 210 0.515146 0.516804 0.858263 
211 1 211 0.774592 0.635177 0.752912 
212 1 212 0.562908 0.589474 0.771785 
213 1 213 0.607214 0.00821666 0.209411 
214 1 214 0.274095 0.0645064 0.550531 
215 1 215 0.392469 0.852301 0.255434 
216 1 216 0.818638 0.872713 0.787053 
217 1 217 0.506004 0.853732 0.631506 
218 1 218 0.580711 0.38989 0.454342 
219 1 219 0.838419 0.614705 0.143067 
220 1 220 0.209369 0.42335 0.161904 
221 1 221 0.793657 0.426915 0.822385 
222 1 222 0.487538 0.275193 0.651693 
223 1 223 0.988406 0.70789 0.325422 
224 1 224 0.330489 0.225667 0.819627 
225 1 225 0.214386 0.805269 0.7137 
226 1 226 0.0111267 0.00591482 0.354558 
227 1 227 0.046076 0.796117 0.690336 
228 1 228 0.371284 0.875686 0.458115 
229 1 229 0.291125 0.245288 0.441269 
230 1 230 0.348633 0.311724 0.514041 
231 1 231 0.901774 0.932766 0.723399 
232 1 232 0.515276 0.82942 0.14021 
233 1 233 0.296918 0.422206 0.676718 
234 1 234 0.548561 0.870382 0.0796253 
235 1 235 0.215273 0.213226 0.0267309 
236 1 236 0.93481 0.768815 0.49197 
237 1 237 0.318809 0.169484 0.0120863 
238 1 238 0.657915 0.500113 0.503363 
239 1 239 0.529745 0.0340592 0.78215 
240 1 240 0.14372 0.4862 0.733417 
241 1 241 0.0945624 0.429075 0.29194 
242 1 242 0.212116 0.684611 0.257269 
243 1 243 0.65384 0.846415 0.540252 
244 1 244 0.0727862 0.38885 0.538324 
245 1 245 0.39543 0.626318 0.847395 
246 1 246 0.533937 0.306877 0.154935 
247 1 247 0.688764 0.97054 0.745503 
248 1 248 0.266803 0.189257 0.123903 
249 1 249 0.599018 0.712842 0.566104 
250 1 250 0.487989 0.147624 0.616371 
251 1 251 0.877097 0.63414 0.406394 
252 1 252 0.0305708 0.00612591 0.16611 
253 1 253 0.693353 0.64122 0.0377644 
254 1 254 0.249478 0.33526 0.933962 
255 1 255 0.821406 0.248931 0.582027 
256 1 256 0.0473141 0.448868 0.836482 
257 1 257 0.126878 0.457182 0.953572 
258 1 258 0.308576 0.767075 0.112937 
259 1 259 0.306215 0.0477333 0.455707 
260 1 260 0.321534 0.645061 0.206857 
261 1 261 0.412671 0.41874 0.0255048 
262 1 262 0.647187 0.0987119 0.185118 
263 1 263 0.786077 0.561009 0.81376 
264 1 264 0.312961 0.917967 0.361201 
265 1 265 0.208233 0.14836 0.704817 
266 1 266 0.454437 0.0767564 0.0872276 
267 1 267 0.526943 0.0806263 0.932552 
268 1 268 0.791276 0.36795 0.581844 
269 1 269 0.863866 0.735708 0.117784 
270 1 270 0.71189 0.626363 0.908922 
271 1 271 0.677913 0.755317 0.141784 
272 1 272 0.10004 0.207679 0.218878 
273 1 273 0.996057 0.566737 0.718253 
274 1 274 0.756479 0.977483 0.652715 
275 1 275 0.0610921 0.506562 0.103661 
276 1 276 0.422877 0.155908 0.798892 
277 1 277 0.494632 0.187188 0.935604 
278 1 278 0.107715 0.8032 0.262074 
279 1 279 0.859391 0.809084 0.831607 
280 1 280 0.785373 0.337679 0.807901 
281 1 281 0.24326 0.539803 0.673697 
282 1 282 0.0546061 0.9145 0.219761 
283 1 283 0.136066 0.803279 0.751682 
284 1 284 0.0456737 0.62348 0.346235 
285 1 285 0.45278 0.770764 0.619139 
286 1 286 0.0720874 0.815055 0.540998 
287 1 287 0.778018 0.976133 0.791842 
288 1 288 0.22847 0.464649 0.691755 
289 1 289 0.447464 0.377683 0.135002 
290 1 290 0.639092 0.844765 0.803567 
291 1 291 0.699476 0.272867 0.490571 
292 1 292 0.892334 0.521736 0.762847 
293 1 293 0.489334 0.460615 0.996745 
294 1 294 0.440064 0.292045 0.219627 
295 1 295 0.0425569 0.625571 0.99157 
296 1 296 0.940905 0.112755 0.566966 
297 1 297 0.770153 0.703928 0.661532 
298 1 298 0.694713 0.497541 0.903819 
299 1 299 0.611076 0.480727 0.940268 
300 1 300 0.256793 0.050007 0.371832 
301 1 301 0.636562 0.235845 0.675545 
302 1 302 0.367879 0.963967 0.53102 
303 1 303 0.116206 0.252682 0.139475 
304 1 304 0.220334 0.501569 0.870029 
305 1 305 0.0738552 0.95764 0.655042 
306 1 306 0.446147 0.725738 0.497701 
307 1 307 0.16528 0.394408 0.535945 
308 1 308 0.537046 0.461102 0.0759297 
309 1 309 0.689627 0.018632 0.655904 
310 1 310 0.161138 0.426 0.0768658 
311 1 311 0.675219 0.129642 0.945143 
312 1 312 0.666321 0.726145 0.25404 
313 1 313 0.723224 0.243031 0.601296 
314 1 314 0.0328661 0.299289 0.194877 
315 1 315 0.407033 0.769442 0.286517 
316 1 316 0.455413 0.0178634 0.996798 
317 1 317 0.761815 0.00378182 0.185562 
318 1 318 0.503998 0.322757 0.321189 
319 1 319 0.883284 0.974141 0.823365 
320 1 320 0.0756407 0.494839 0.399619 
321 1 321 0.676148 0.496826 0.611771 
322 1 322 0.197926 0.836653 0.0875646 
323 1 323 0.743703 0.824453 0.0331844 
324 1 324 0.777823 0.215642 0.485968 
325 1 325 0.92279 0.598497 0.496805 
326 1 326 0.475963 0.377718 0.225375 
327 1 327 0.993761 0.0356457 0.800568 
328 1 328 0.157802 0.265499 0.992708 
329 1 329 0.20205 0.980023 0.389041 
330 1 330 0.0348604 0.980669 0.93412 
331 1 331 0.999534 0.0686553 0.447087 
332 1 332 0.335341 0.752694 0.768797 
333 1 333 0.155423 0.891064 0.988216 
334 1 334 0.369573 0.5227 0.981319 
335 1 335 0.35282 0.427953 0.873804 
336 1 336 0.530628 0.122184 0.240296 
337 1 337 0.889748 0.256543 0.708622 
338 1 338 0.944271 0.452739 0.629831 
339 1 339 0.570052 0.458658 0.29624 
340 1 340 0.53357 0.88168 0.309127 
341 1 341 0.507853 0.994382 0.351591 
342 1 342 0.581829 0.84031 0.231484 
343 1 343 0.475301 0.447723 0.614093 
344 1 344 0.317915 0.862277 0.701883 
345 1 345 0.405918 0.736058 0.407145 
346 1 346 0.551082 0.956554 0.634609 
347 1 347 0.942407 0.423687 0.289916 
348 1 348 0.557401 0.253119 0.753424 
349 1 349 0.636071 0.804727 0.703707 
350 1 350 0.131818 0.980996 0.760295 
351 1 351 0.785125 0.482212 0.601537 
352 1 352 0.306708 0.699821 0.314233 
353 1 353 0.256755 0.191871 0.246569 
354 1 354 0.151736 0.168074 0.124741 
355 1 355 0.747945 0.605891 0.2512 
356 1 356 0.255887 0.360095 0.297064 
357 1 357 0.301926 0.397904 0.423621 
358 1 358 0.772607 0.393917 0.439055 
359 1 359 0.316302 0.7872 0.601964 
360 1 360 0.508517 0.127266 0.323895 
361 1 361 0.753768 0.885614 0.855994 
362 1 362 0.653059 0.589995 0.526491 
363 1 363 0.0195338 0.393789 0.0829374 
364 1 364 0.0560422 0.66406 0.792472 
365 1 365 0.555078 0.479642 0.618382 
366 1 366 0.799645 0.192971 0.104974 
367 1 367 0.0139074 0.389458 0.62989 
368 1 368 0.970619 0.462816 0.129724 
369 1 369 0.176903 0.214451 0.476819 
370 1 370 0.914611 0.425566 0.708234 
371 1 371 0.721747 0.453395 0.49123 
372 1 372 0.156419 0.665141 0.872126 
373 1 373 0.370568 0.603203 0.533248 
374 1 374 0.190391 0.165499 0.309468 
375 1 375 0.765642 0.763879 0.780326 
376 1 376 0.518744 0.600624 0.244597 
377 1 377 0.463875 0.991098 0.849578 
378 1 378 0.254891 0.521953 0.101665 
379 1 379 0.886479 0.399118 0.161086 
380 1 380 0.0237584 0.552834 0.419881 
381 1 381 0.604261 0.681997 0.2367 
382 1 382 0.31385 0.726341 0.864046 
383 1 383 0.561039 0.805449 0.7837 
384 1 384 0.56826 0.212989 0.377194 
385 1 385 0.108701 0.801214 0.916895 
386 1 386 0.332059 0.164741 0.281097 
387 1 387 0.150398 0.322018 0.630913 
388 1 388 0.171446 0.280035 0.862255 
389 1 389 0.835257 0.788193 0.552152 
390 1 390 0.743857 0.165529 0.207502 
391 1 391 0.976579 0.444526 0.459917 
392 1 392 0.854008 0.400976 0.618822 
393 1 393 0.19062 0.787778 0.30543 
394 1 394 0.803169 0.877061 0.704737 
395 1 395 0.373711 0.508705 0.0749092 
396 1 396 0.164209 0.155448 0.930759 
397 1 397 0.168208 0.348707 0.224337 
398 1 398 0.45892 0.453016 0.886673 
399 1 399 0.49871 0.703655 0.676909 
400 1 400 0.839471 0.929723 0.206509 
401 1 401 0.256417 0.985129 0.138225 
402 1 402 0.110284 0.888753 0.630347 
403 1 403 0.655371 0.234906 0.411745 
404 1 404 0.864762 0.944272 0.520927 
405 1 405 0.565742 0.779567 0.500906 
406 1 406 0.867313 0.856684 0.913166 
407 1 407 0.393279 0.467868 0.71911 
408 1 408 0.276589 0.000806543 0.687461 
409 1 409 0.212295 0.0166786 0.558563 
410 1 410 0.944185 0.412409 0.807701 
411 1 411 0.432612 0.168988 0.153451 
412 1 412 0.191184 0.981356 0.681099 
413 1 413 0.0314796 0.676178 0.0968531 
414 1 414 0.259233 0.440079 0.228948 
415 1 415 0.545887 0.450851 0.53698 
416 1 416 0.113827 0.134138 0.826935 
417 1 417 0.923542 0.100518 0.231439 
418 1 418 0.46805 0.544162 0.563899 
419 1 419 0.289659 0.892465 0.581934 
420 1 420 0.707422 0.54481 0.444828 
421 1 421 0.616961 0.963153 0.924661 
422 1 422 0.307134 0.938456 0.90234 
423 1 423 0.169352 0.677174 0.0441383 
424 1 424 0.0613165 0.190226 0.722656 
425 1 425 0.395878 0.125118 0.688057 
426 1 426 0.840519 0.522575 0.87337 
427 1 427 0.671532 0.178749 0.131716 
428 1 428 0.0330816 0.31228 0.912589 
429 1 429 0.639822 0.0859208 0.107262 
430 1 430 0.756252 0.081173 0.607381 
431 1 431 0.69311 0.697545 0.534713 
432 1 432 0.0893303 0.720165 0.741923 
433 1 433 0.933873 0.221058 0.525445 
434 1 434 0.131926 0.640848 0.966821 
435 1 435 0.42431 0.503636 0.636475 
436 1 436 0.980895 0.526424 0.314995 
437 1 437 0.136578 0.795849 0.00722434 
438 1 438 0.601631 0.854457 0.00492035 
439 1 439 0.658182 0.44132 0.275673 
440 1 440 0.569009 0.109688 0.747358 
441 1 441 0.683335 0.42861 0.384768 
442 1 442 0.781757 0.26815 0.84549 
443 1 443 0.728979 0.874141 0.421187 
444 1 444 0.441168 0.48315 0.481087 
445 1 445 0.120013 0.0687471 0.699686 
446 1 446 0.224976 0.288716 0.22125 
447 1 447 0.379035 0.546481 0.415808 
448 1 448 0.517358 0.861242 0.552687 
449 1 449 0.237466 0.885819 0.138364 
450 1 450 0.478985 0.763286 0.94339 
451 1 451 0.109982 0.961281 0.265468 
452 1 452 0.410815 0.289355 0.613019 
453 1 453 0.788675 0.428506 0.970458 
454 1 454 0.899887 0.649173 0.931858 
455 1 455 0.650517 0.05404 0.858611 
456 1 456 0.6027 0.064406 0.984498 
457 1 457 0.415958 0.300388 0.441699 
458 1 458 0.669011 0.100629 0.259887 
459 1 459 0.90616 0.758733 0.38811 
460 1 460 0.225303 0.462705 0.0306796 
461 1 461 0.384241 0.863223 0.877314 
462 1 462 0.0655971 0.102214 0.0684729 
463 1 463 0.109441 0.194067 0.58264 
464 1 464 0.549031 0.648922 0.974331 
465 1 465 0.864666 0.717323 0.766139 
466 1 466 0.629891 0.523437 0.0109958 
467 1 467 0.777798 0.323862 0.392682 
468 1 468 0.759784 0.057642 0.831347 
469 1 469 0.264577 0.767674 0.223337 
470 1 470 0.875482 0.0772924 0.67614 
471 1 471 0.138593 0.401297 0.637958 
472 1 472 0.670796 0.634822 0.335826 
473 1 473 0.677063 0.873025 0.69637 
474 1 474 0.426676 0.0870498 0.862208 
475 1 475 0.656677 0.612696 0.958772 
476 1 476 0.612626 0.688321 0.124069 
477 1 477 0.682976 0.884993 0.341988 
478 1 478 0.341243 0.00100763 0.11561 
479 1 479 0.864327 0.674154 0.705922 
480 1 480 0.933125 0.28693 0.142526 
481 1 481 0.0296993 0.122565 0.355891 
482 1 482 0.662983 0.317923 0.946257 
483 1 483 0.84343 0.75565 0.292991 
484 1 484 0.604717 0.286865 0.467899 
485 1 485 0.961965 0.554676 0.956739 
486 1 486 0.186823 0.338068 0.0347224 
487 1 487 0.22854 0.607131 0.277666 
488 1 488 0.975026 0.863549 0.743011 
489 1 489 0.840533 0.465739 0.78205 
490 1 490 0.907342 0.905769 0.385241 
491 1 491 0.352086 0.24901 0.0500485 
492 1 492 0.182306 0.0602712 0.102313 
493 1 493 0.499415 0.92752 0.0420185 
494 1 494 0.794731 0.773707 0.86068 
495 1 495 0.614918 0.434272 0.814871 
496 1 496 0.449183 0.384014 0.360301 
497 1 497 0.48943 0.648934 0.428233 
498 1 498 0.297007 0.885203 0.216295 
499 1 499 0.786051 0.0451649 0.716495 
500 1 500 0.197557 0.870739 0.615278 
501 1 501 0.0648368 0.879628 0.325472 
502 1 502 0.194353 0.737688 0.961864 
503 1 503 0.150644 0.258042 0.791884 
504 1 504 0.890519 0.145293 0.840642 
505 1 505 0.154676 0.816422 0.414402 
506 1 506 0.159763 0.502247 0.81509 
507 1 507 0.12391 0.708503 0.582281 
508 1 508 0.778214 0.681594 0.104155 
509 1 509 0.609575 0.460257 0.114975 
510 1 510 0.795044 0.768818 0.125566 
511 1 511 0.139972 0.519786 0.126614 
512 1 512 0.492457 0.659321 0.345018 
513 1 513 0.300919 0.615712 0.477218 
514 1 514 0.655643 0.400663 0.916392 
515 1 515 0.542057 0.0544193 0.448655 
516 1 516 0.819321 0.292588 0.0827037 
517 1 517 0.979263 0.559624 0.822316 
518 1 518 0.799082 0.903877 0.0736203 
519 1 519 0.545067 0.170678 0.448298 
520 1 520 0.626284 0.951219 0.0248449 
521 1 521 0.829525 0.481454 0.38734 
522 1 522 0.727207 0.262531 0.209505 
523 1 523 0.792866 0.716756 0.941922 
524 1 524 0.285177 0.57453 0.160545 
525 1 525 0.444021 0.240687 0.90609 
526 1 526 0.312722 0.36505 0.55991 
527 1 527 0.15269 0.958173 0.466427 
528 1 528 0.145482 0.926071 0.358411 
529 1 529 0.556574 0.372726 0.822486 
530 1 530 0.372618 0.752825 0.185803 
531 1 531 0.408443 0.291206 0.141346 
532 1 532 0.992036 0.627401 0.666111 
533 1 533 0.378392 0.413462 0.509491 
534 1 534 0.0543814 0.261242 0.00939213 
535 1 535 0.036389 0.890522 0.855049 
536 1 536 0.550558 0.762066 0.0724946 
537 1 537 0.473823 0.649835 0.903519 
538 1 538 0.176244 0.73336 0.637247 
539 1 539 0.0919875 0.310112 0.863693 
540 1 540 0.955212 0.640679 0.574158 
541 1 541 0.428745 0.917761 0.637297 
542 1 542 0.638994 0.0902224 0.602179 
543 1 543 0.973647 0.673882 0.773201 
544 1 544 0.864726 0.561899 0.697302 
545 1 545 0.926113 0.904926 0.46272 
546 1 546 0.761259 0.400777 0.309719 
547 1 547 0.336382 0.682552 0.107502 
548 1 548 0.636484 0.338425 0.422072 
549 1 549 0.63673 0.930429 0.605421 
550 1 550 0.660401 0.151489 0.849218 
551 1 551 0.257002 0.479188 0.31158 
552 1 552 0.0725355 0.765624 0.797322 
553 1 553 0.865688 0.346202 0.887695 
554 1 554 0.94007 0.027403 0.51672 
555 1 555 0.943247 0.975587 0.872627 
556 1 556 0.531959 0.539121 0.979241 
557 1 557 0.861292 0.109129 0.480274 
558 1 558 0.963961 0.898248 0.172811 
559 1 559 0.547305 0.502098 0.716145 
560 1 560 0.0278039 0.0838818 0.893559 
561 1 561 0.688969 0.916299 0.0555858 
562 1 562 0.298005 0.512969 0.605313 
563 1 563 0.264721 0.0818523 0.267631 
564 1 564 0.863005 0.18954 0.242144 
565 1 565 0.0117479 0.581441 0.0437412 
566 1 566 0.105744 0.760291 0.0803908 
567 1 567 0.975504 0.0399381 0.621078 
568 1 568 0.142862 0.447423 0.355449 
569 1 569 0.322969 0.233709 0.607155 
570 1 570 0.930266 0.0606271 0.833203 
571 1 571 0.469397 0.411058 0.684831 
572 1 572 0.207601 0.384059 0.352412 
573 1 573 0.908345 0.466207 0.557772 
574 1 574 0.974777 0.80655 0.620883 
575 1 575 0.211377 0.658705 0.53727 
576 1 576 0.32213 0.509061 0.892398 
577 1 577 0.816706 0.601857 0.0174744 
578 1 578 0.224086 0.572219 0.760518 
579 1 579 0.947456 0.141466 0.74435 
580 1 580 0.281248 0.149888 0.90737 
581 1 581 0.297708 0.959657 0.258576 
582 1 582 0.67337 0.145274 0.435129 
583 1 583 0.523863 0.360298 0.740764 
584 1 584 0.547052 0.727871 0.912392 
585 1 585 0.840427 0.401875 0.263853 
586 1 586 0.0026081 0.108173 0.20635 
587 1 587 0.163278 0.119771 0.370008 
588 1 588 0.592242 0.147277 0.515129 
589 1 589 0.807919 0.755918 0.416189 
590 1 590 0.748721 0.527078 0.94164 
591 1 591 0.81375 0.55817 0.627833 
592 1 592 0.852355 0.970937 0.897696 
593 1 593 0.104545 0.0782272 0.606718 
594 1 594 0.0574167 0.573984 0.16354 
595 1 595 0.865775 0.201768 0.419353 
596 1 596 0.932789 0.604415 0.030933 
597 1 597 0.786984 0.0341587 0.0546364 
598 1 598 0.507441 0.981027 0.219741 
599 1 599 0.039418 0.967194 0.7846 
600 1 600 0.986139 0.678845 0.484636 
601 1 601 0.687452 0.312088 0.791673 
602 1 602 0.402254 0.19418 0.223735 
603 1 603 0.876762 0.553099 0.326281 
604 1 604 0.809824 0.206025 0.92903 
605 1 605 0.663875 0.881323 0.915418 
606 1 606 0.719807 0.034265 0.951098 
607 1 607 0.524766 0.0705015 0.187732 
608 1 608 0.239395 0.635685 0.872146 
609 1 609 0.415855 0.816402 0.716082 
610 1 610 0.944399 0.39368 0.517099 
611 1 611 0.811249 0.771929 0.623172 
612 1 612 0.59434 0.0432016 0.514679 
613 1 613 0.17064 0.018391 0.62368 
614 1 614 0.683973 0.291069 0.0377713 
615 1 615 0.201593 0.0633035 0.834218 
616 1 616 0.231837 0.27679 0.557278 
617 1 617 0.712315 0.580168 0.151544 
618 1 618 0.756913 0.965447 0.289875 
619 1 619 0.556949 0.124536 0.018184 
620 1 620 0.270759 0.748546 0.698752 
621 1 621 0.629763 0.184685 0.980525 
622 1 622 0.2965 0.544362 0.350971 
623 1 623 0.533942 0.64685 0.060358 
624 1 624 0.500949 0.231239 0.344899 
625 1 625 0.0561439 0.324309 0.686462 
626 1 626 0.636782 0.363566 0.147359 
627 1 627 0.624809 0.509034 0.688111 
628 1 628 0.0566219 0.633681 0.894771 
629 1 629 0.9651 0.904475 0.62985 
630 1 630 0.295196 0.13681 0.377259 
631 1 631 0.56883 0.547127 0.575014 
632 1 632 0.527361 0.126401 0.12081 
633 1 633 0.158136 0.601581 0.805776 
634 1 634 0.637905 0.812735 0.0562759 
635 1 635 0.687418 0.297265 0.131466 
636 1 636 0.645409 0.605505 0.626698 
637 1 637 0.218169 0.861975 0.370205 
638 1 638 0.545086 0.28982 0.56441 
639 1 639 0.298891 0.159679 0.836426 
640 1 640 0.108979 0.444927 0.453291 
641 1 641 0.482481 0.567027 0.326211 
642 1 642 0.815777 0.479089 0.252421 
643 1 643 0.366644 0.871232 0.986239 
644 1 644 0.502217 0.567515 0.0805172 
645 1 645 0.577946 0.369268 0.61426 
646 1 646 0.181859 0.158046 0.538506 
647 1 647 0.791804 0.489602 0.49917 
648 1 648 0.314838 0.607738 0.839278 
649 1 649 0.840268 0.218105 0.786797 
650 1 650 0.38353 0.458396 0.20326 
651 1 651 0.972095 0.670439 0.402855 
652 1 652 0.548944 0.197899 0.845142 
653 1 653 0.471761 0.48722 0.156051 
654 1 654 0.317759 0.977358 0.0049644 
655 1 655 0.498475 0.378528 0.455821 
656 1 656 0.327146 0.26524 0.173063 
657 1 657 0.263445 0.293674 0.346349 
658 1 658 0.695467 0.029379 0.0982269 
659 1 659 0.38602 0.666356 0.576095 
660 1 660 0.813393 0.0469775 0.490767 
661 1 661 0.804967 0.830586 0.489216 
662 1 662 0.903445 0.622211 0.637912 
663 1 663 0.512333 0.429151 0.353575 
664 1 664 0.199396 0.685712 0.397272 
665 1 665 0.0408415 0.648918 0.562778 
666 1 666 0.921107 0.335077 0.399065 
667 1 667 0.297719 0.593121 0.579612 
668 1 668 0.991281 0.279276 0.46921 
669 1 669 0.0760046 0.00656269 0.453636 
670 1 670 0.99773 0.967955 0.710604 
671 1 671 0.923078 0.266133 0.340202 
672 1 672 0.894709 0.85996 0.19325 
673 1 673 0.931043 0.320521 0.969145 
674 1 674 0.297899 0.91154 0.0588494 
675 1 675 0.517177 0.380184 0.0882668 
676 1 676 0.164336 0.235657 0.334493 
677 1 677 0.0629 0.597125 0.654319 
678 1 678 0.146046 0.720788 0.275949 
679 1 679 0.87438 0.954988 0.0884284 
680 1 680 0.956892 0.301512 0.764554 
681 1 681 0.788928 0.663132 0.862148 
682 1 682 0.801412 0.424115 0.0823367 
683 1 683 0.271609 0.327502 0.771277 
684 1 684 0.240245 0.00321056 0.291075 
685 1 685 0.694428 0.456926 0.0133684 
686 1 686 0.458272 0.232003 0.565742 
687 1 687 0.164099 0.819017 0.22226 
688 1 688 0.949517 0.180773 0.644692 
689 1 689 0.880875 0.48404 0.0589273 
690 1 690 0.657712 0.194597 0.323159 
691 1 691 0.0339602 0.90686 0.532309 
692 1 692 0.498316 0.713345 0.0244369 
693 1 693 0.0162776 0.70606 0.626546 
694 1 694 0.964174 0.0195886 0.0680781 
695 1 695 0.857137 0.0601287 0.378134 
696 1 696 0.587809 0.338429 0.990186 
697 1 697 0.24716 0.956967 0.485836 
698 1 698 0.0441099 0.69678 0.215022 
699 1 699 0.794435 0.237706 0.400916 
700 1 700 0.444702 0.491937 0.3989 
701 1 701 0.745661 0.482642 0.318989 
702 1 702 0.974735 0.0301574 0.286981 
703 1 703 0.430868 0.345019 0.710058 
704 1 704 0.895782 0.825995 0.670906 
705 1 705 0.415616 0.962084 0.319234 
706 1 706 0.415402 0.533193 0.268504 
707 1 707 0.224699 0.0950371 0.93306 
708 1 708 0.270473 0.313735 0.106861 
709 1 709 0.756322 0.295786 0.311783 
710 1 710 0.963763 0.135172 0.0440385 
711 1 711 0.764084 0.96694 0.951935 
712 1 712 0.405989 0.158579 0.362784 
713 1 713 0.966121 0.76417 0.162925 
714 1 714 0.279262 0.65121 0.402445 
715 1 715 0.126711 0.664369 0.5123 
716 1 716 0.341199 0.647136 0.767884 
717 1 717 0.0405206 0.864239 0.101817 
718 1 718 0.982691 0.273799 0.285526 
719 1 719 0.0453016 0.254633 0.773227 
720 1 720 0.86611 0.3636 0.805946 
721 1 721 0.90514 0.874456 0.820513 
722 1 722 0.161775 0.621767 0.430541 
723 1 723 0.142414 0.573831 0.188672 
724 1 724 0.623957 0.187474 0.229922 
725 1 725 0.0528247 0.779459 0.173055 
726 1 726 0.217035 0.709609 0.794704 
727 1 727 0.584097 0.962778 0.494938 
728 1 728 0.212282 0.959745 0.077781 
729 1 729 0.0440542 0.423352 0.73054 
730 1 730 0.479307 0.843551 0.962175 
731 1 731 0.564975 0.521302 0.204328 
732 1 732 0.759569 0.562663 0.547413 
733 1 733 0.18522 0.528034 0.36968 
734 1 734 0.926864 0.214397 0.773979 
735 1 735 0.977967 0.268581 0.866558 
736 1 736 0.074477 0.927521 0.435261 
737 1 737 0.704255 0.0420049 0.53838 
738 1 738 0.783764 0.0267087 0.31347 
739 1 739 0.679997 0.842274 0.13691 
740 1 740 0.357634 0.251372 0.366048 
741 1 741 0.675723 0.979408 0.376473 
742 1 742 0.531244 0.265553 0.938531 
743 1 743 0.370537 0.192703 0.948674 
744 1 744 0.780493 0.109722 0.67492 
745 1 745 0.0430429 0.496999 0.595566 
746 1 746 0.944079 0.635631 0.136252 
747 1 747 0.236324 0.39538 0.821802 
748 1 748 0.648862 0.723585 0.372617 
749 1 749 0.363743 0.984475 0.796157 
750 1 750 0.33145 0.495865 0.51512 
751 1 751 0.719125 0.191148 0.763612 
752 1 752 0.668692 0.412049 0.661756 
753 1 753 0.388833 0.386185 0.287221 
754 1 754 0.220768 0.329202 0.667324 
755 1 755 0.847916 0.640155 0.777659 
756 1 756 0.186405 0.944558 0.814751 
757 1 757 0.349365 0.429854 0.790345 
758 1 758 0.561031 0.908136 0.908903 
759 1 759 0.347306 0.153175 0.138987 
760 1 760 0.710108 0.4112 0.727731 
761 1 761 0.125984 0.297207 0.291651 
762 1 762 0.105815 0.0737277 0.408746 
763 1 763 0.129488 0.600814 0.339731 
764 1 764 0.317289 0.110398 0.702827 
765 1 765 0.419225 0.28791 0.999956 
766 1 766 0.404843 0.359967 0.921907 
767 1 767 0.661245 0.925935 0.153549 
768 1 768 0.313543 0.529869 0.757045 
769 1 769 0.277905 0.624097 0.0540902 
770 1 770 0.186616 0.304746 0.117334 
771 1 771 0.0801898 0.554348 0.272094 
772 1 772 0.0732456 0.0415001 0.316434 
773 1 773 0.70685 0.105431 0.754748 
774 1 774 0.156082 0.483592 0.590057 
775 1 775 0.87571 0.310143 0.496858 
776 1 776 0.75225 0.153073 0.570017 
777 1 777 0.202251 0.661246 0.71273 
778 1 778 0.365929 0.0546999 0.30443 
779 1 779 0.972964 0.421306 0.8843 
780 1 780 0.574261 0.785905 0.382513 
781 1 781 0.355444 0.130192 0.503999 
782 1 782 0.541517 0.179035 0.660119 
783 1 783 0.753931 0.47809 0.697303 
784 1 784 0.989354 0.656938 0.863553 
785 1 785 0.147596 0.140169 0.756542 
786 1 786 0.545173 0.0822906 0.608313 
787 1 787 0.901048 0.829887 0.313537 
788 1 788 0.876796 0.692248 0.486671 
789 1 789 0.960996 0.149351 0.471292 
790 1 790 0.504981 0.108601 0.492057 