ITEM: TIMESTEP
20000000
ITEM: NUMBER OF ATOMS
1000
ITEM: BOX BOUNDS pp pp pp
-1.5222204929384323e-01 5.9770222049300536e+01
-1.5222204929384323e-01 5.9770222049300536e+01
-1.5222204929384323e-01 5.9770222049300536e+01
ITEM: ATOMS id type mol xs ys zs 
1 1 1 0.455946 0.328687 0.528392 
2 1 2 0.541148 0.848428 0.731949 
3 1 3 0.669274 0.165673 0.96296 
4 1 4 0.0150776 0.391147 0.80052 
5 1 5 0.54184 0.362027 0.473712 
6 1 6 0.519657 0.82469 0.0903401 
7 1 7 0.327174 0.983791 0.437507 
8 1 8 0.702443 0.754184 0.579866 
9 1 9 0.650338 0.909904 0.988189 
10 1 10 0.707585 0.416289 0.674292 
11 1 11 0.020004 0.215781 0.347526 
12 1 12 0.530793 0.00902217 0.154339 
13 1 13 0.488536 0.583834 0.872165 
14 1 14 0.723649 0.0159444 0.0215844 
15 1 15 0.4004 0.107488 0.332776 
16 1 16 0.0315628 0.222195 0.990767 
17 1 17 0.45313 0.873028 0.484063 
18 1 18 0.594427 0.694612 0.182461 
19 1 19 0.625938 0.839782 0.391608 
20 1 20 0.894007 0.449106 0.595803 
21 1 21 0.174863 0.938148 0.370045 
22 1 22 0.401206 0.0777463 0.442684 
23 1 23 0.482787 0.508866 0.262791 
24 1 24 0.549481 0.390782 0.692331 
25 1 25 0.675656 0.00679724 0.280298 
26 1 26 0.862419 0.889387 0.475009 
27 1 27 0.983986 0.306236 0.191985 
28 1 28 0.405533 0.49658 0.454012 
29 1 29 0.963938 0.82321 0.77391 
30 1 30 0.165466 0.490144 0.115937 
31 1 31 0.577043 0.0269806 0.0648444 
32 1 32 0.799909 0.0128898 0.50374 
33 1 33 0.243436 0.646789 0.312019 
34 1 34 0.79736 0.743926 0.812776 
35 1 35 0.291173 0.747992 0.680232 
36 1 36 0.928615 0.30497 0.993417 
37 1 37 0.0698982 0.379165 0.240824 
38 1 38 0.699508 0.353631 0.753857 
39 1 39 0.902059 0.366091 0.592449 
40 1 40 0.286475 0.213657 0.813198 
41 1 41 0.559999 0.66105 0.648359 
42 1 42 0.283925 0.0622151 0.88844 
43 1 43 0.591613 0.399517 0.803794 
44 1 44 0.0120497 0.977163 0.526456 
45 1 45 0.741985 0.280872 0.00939278 
46 1 46 0.479362 0.456209 0.0105599 
47 1 47 0.809879 0.0862172 0.225449 
48 1 48 0.788982 0.808508 0.64986 
49 1 49 0.365144 0.751467 0.0909961 
50 1 50 0.743372 0.297443 0.55224 
51 1 51 0.314353 0.346859 0.841507 
52 1 52 0.488254 0.923543 0.644733 
53 1 53 0.0707838 0.577453 0.51925 
54 1 54 0.458207 0.301374 0.902369 
55 1 55 0.869069 0.20876 0.116659 
56 1 56 0.131573 0.0941646 0.713544 
57 1 57 0.717504 0.746914 0.866612 
58 1 58 0.969542 0.0751492 0.252265 
59 1 59 0.953315 0.155757 0.309144 
60 1 60 0.160644 0.00800371 0.440856 
61 1 61 0.270838 0.76008 0.136133 
62 1 62 0.0923327 0.379978 0.941778 
63 1 63 0.341197 0.445562 0.211286 
64 1 64 0.126783 0.916479 0.803169 
65 1 65 0.639655 0.520554 0.89241 
66 1 66 0.310705 0.314052 0.42865 
67 1 67 0.427109 0.571066 0.406725 
68 1 68 0.257588 0.72579 0.52536 
69 1 69 0.265334 0.483258 0.941124 
70 1 70 0.805912 0.921252 0.635009 
71 1 71 0.0443072 0.072179 0.432176 
72 1 72 0.191855 0.146828 0.770835 
73 1 73 0.403459 0.674062 0.387279 
74 1 74 0.0559743 0.137169 0.187763 
75 1 75 0.321414 0.227612 0.688638 
76 1 76 0.176125 0.864094 0.726086 
77 1 77 0.438239 0.897349 0.148783 
78 1 78 0.919622 0.289243 0.495728 
79 1 79 0.371266 0.40795 0.668916 
80 1 80 0.297901 0.805524 0.342789 
81 1 81 0.200808 0.820878 0.194965 
82 1 82 0.963847 0.903737 0.431727 
83 1 83 0.14825 0.67413 0.49846 
84 1 84 0.420131 0.030567 0.676722 
85 1 85 0.0730239 0.229954 0.617681 
86 1 86 0.00104055 0.170078 0.68487 
87 1 87 0.303893 0.593205 0.661832 
88 1 88 0.647532 0.534152 0.120442 
89 1 89 0.100314 0.564519 0.790676 
90 1 90 0.776443 0.0118189 0.240613 
91 1 91 0.332715 0.91099 0.496152 
92 1 92 0.339174 0.832514 0.182735 
93 1 93 0.383346 0.122165 0.780112 
94 1 94 0.50792 0.977257 0.956923 
95 1 95 0.327286 0.286199 0.77407 
96 1 96 0.608959 0.542341 0.20541 
97 1 97 0.486151 0.0599539 0.518591 
98 1 98 0.366804 0.529766 0.713475 
99 1 99 0.148358 0.635787 0.23487 
100 1 100 0.0616413 0.139237 0.305232 
101 1 101 0.141211 0.541926 0.259983 
102 1 102 0.25782 0.820211 0.737409 
103 1 103 0.441607 0.0368741 0.805803 
104 1 104 0.620766 0.185393 0.200251 
105 1 105 0.42599 0.965697 0.450253 
106 1 106 0.974108 0.213548 0.0970061 
107 1 107 0.540298 0.664845 0.00762052 
108 1 108 0.716497 0.512501 0.947837 
109 1 109 0.0218898 0.796157 0.395146 
110 1 110 0.292963 0.702393 0.968311 
111 1 111 0.517261 0.0784594 0.874635 
112 1 112 0.848068 0.386979 0.164923 
113 1 113 0.06444 0.569519 0.669123 
114 1 114 0.296987 0.692339 0.425025 
115 1 115 0.286638 0.365965 0.0058332 
116 1 116 0.416011 0.141359 0.237814 
117 1 117 0.209766 0.677163 0.683336 
118 1 118 0.463136 0.299878 0.803241 
119 1 119 0.0562169 0.509319 0.951538 
120 1 120 0.578255 0.36552 0.111902 
121 1 121 0.593281 0.0247802 0.968263 
122 1 122 0.968744 0.0424053 0.946557 
123 1 123 0.170994 0.918244 0.896431 
124 1 124 0.972217 0.559305 0.151589 
125 1 125 0.715742 0.794929 0.2345 
126 1 126 0.0871184 0.135043 0.629256 
127 1 127 0.103096 0.262401 0.0229795 
128 1 128 0.0324014 0.669006 0.671214 
129 1 129 0.995501 0.894726 0.0844687 
130 1 130 0.39562 0.710993 0.682357 
131 1 131 0.81049 0.0698111 0.695725 
132 1 132 0.883765 0.912222 0.150802 
133 1 133 0.638566 0.140345 0.42208 
134 1 134 0.877049 0.856861 0.319054 
135 1 135 0.622092 0.408433 0.215111 
136 1 136 0.0780505 0.945723 0.581146 
137 1 137 0.203125 0.0165244 0.268096 
138 1 138 0.971623 0.345479 0.717545 
139 1 139 0.141804 0.126814 0.404 
140 1 140 0.618826 0.709382 0.958923 
141 1 141 0.0812499 0.0422003 0.256916 
142 1 142 0.774043 0.618513 0.68974 
143 1 143 0.344608 0.888776 0.971456 
144 1 144 0.607276 0.815774 0.493484 
145 1 145 0.984605 0.2997 0.596135 
146 1 146 0.668151 0.438318 0.97701 
147 1 147 0.911422 0.686311 0.847796 
148 1 148 0.563134 0.193563 0.615047 
149 1 149 0.628424 0.952844 0.73665 
150 1 150 0.435515 0.252862 0.0791729 
151 1 151 0.346027 0.488691 0.613683 
152 1 152 0.884629 0.550472 0.197651 
153 1 153 0.137466 0.493013 0.711803 
154 1 154 0.0954071 0.943939 0.446762 
155 1 155 0.614135 0.0491011 0.719006 
156 1 156 0.150375 0.595607 0.339501 
157 1 157 0.786192 0.512873 0.306532 
158 1 158 0.638687 0.431314 0.736227 
159 1 159 0.791644 0.384061 0.535867 
160 1 160 0.341161 0.306988 0.941137 
161 1 161 0.59217 0.747147 0.696415 
162 1 162 0.518894 0.954929 0.749449 
163 1 163 0.786583 0.850426 0.0100814 
164 1 164 0.409428 0.64878 0.123939 
165 1 165 0.438697 0.883146 0.797958 
166 1 166 0.43098 0.545231 0.807798 
167 1 167 0.123811 0.019235 0.343344 
168 1 168 0.768 0.511103 0.426246 
169 1 169 0.405695 0.216389 0.728864 
170 1 170 0.709277 0.553571 0.0334023 
171 1 171 0.684379 0.448676 0.489286 
172 1 172 0.831343 0.911728 0.767847 
173 1 173 0.564326 0.780087 0.929237 
174 1 174 0.888051 0.183126 0.468881 
175 1 175 0.804652 0.572367 0.578361 
176 1 176 0.840156 0.471557 0.811476 
177 1 177 0.69837 0.178054 0.351839 
178 1 178 0.860665 0.705675 0.115027 
179 1 179 0.975885 0.69138 0.140502 
180 1 180 0.132816 0.109505 0.117751 
181 1 181 0.353869 0.20095 0.985653 
182 1 182 0.862406 0.734281 0.748823 
183 1 183 0.246677 0.0162257 0.4635 
184 1 184 0.76564 0.519999 0.869052 
185 1 185 0.80887 0.294219 0.485847 
186 1 186 0.450421 0.6289 0.648594 
187 1 187 0.197663 0.380665 0.206612 
188 1 188 0.00173529 0.70838 0.561258 
189 1 189 0.455893 0.448812 0.724253 
190 1 190 0.442479 0.590183 0.302427 
191 1 191 0.262378 0.879572 0.660194 
192 1 192 0.0817569 0.561338 0.170709 
193 1 193 0.138491 0.281499 0.925387 
194 1 194 0.251512 0.603075 0.745216 
195 1 195 0.113054 0.640288 0.866123 
196 1 196 0.240594 0.235257 0.637258 
197 1 197 0.0659835 0.280907 0.137226 
198 1 198 0.470387 0.709827 0.442611 
199 1 199 0.424147 0.655969 0.543918 
200 1 200 0.205611 0.0705219 0.371134 
201 1 201 0.824037 0.474155 0.678335 
202 1 202 0.395573 0.481847 0.33915 
203 1 203 0.238301 0.168129 0.352976 
204 1 204 0.396017 0.458026 0.833087 
205 1 205 0.793742 0.577426 0.103195 
206 1 206 0.138637 0.594764 0.705006 
207 1 207 0.316695 0.104914 0.393187 
208 1 208 0.408986 0.407114 0.922929 
209 1 209 0.865957 0.322326 0.783522 
210 1 210 0.665795 0.144788 0.11392 
211 1 211 0.163072 0.730592 0.874395 
212 1 212 0.543912 0.0919277 0.432293 
213 1 213 0.883278 0.835655 0.936855 
214 1 214 0.672287 0.754415 0.141875 
215 1 215 0.547176 0.725367 0.281815 
216 1 216 0.173658 0.383884 0.519825 
217 1 217 0.312694 0.151378 0.13139 
218 1 218 0.449294 0.415762 0.254718 
219 1 219 0.145773 0.703074 0.9521 
220 1 220 0.784801 0.273039 0.736448 
221 1 221 0.0953898 0.849927 0.656093 
222 1 222 0.876124 0.358652 0.31473 
223 1 223 0.96558 0.268932 0.282541 
224 1 224 0.748098 0.596813 0.954519 
225 1 225 0.839707 0.586967 0.468469 
226 1 226 0.0919188 0.356395 0.745881 
227 1 227 0.900965 0.769316 0.321739 
228 1 228 0.350255 0.605232 0.361322 
229 1 229 0.251469 0.365933 0.363165 
230 1 230 0.51957 0.682576 0.552758 
231 1 231 0.591229 0.613168 0.934143 
232 1 232 0.583921 0.287337 0.645147 
233 1 233 0.236345 0.443796 0.153609 
234 1 234 0.338161 0.014382 0.832524 
235 1 235 0.115012 0.459493 0.793912 
236 1 236 0.0223856 0.0128518 0.0601703 
237 1 237 0.490309 0.747791 0.712339 
238 1 238 0.710911 0.698407 0.964951 
239 1 239 0.111046 0.598732 0.979218 
240 1 240 0.939614 0.106584 0.48605 
241 1 241 0.0995307 0.197259 0.850288 
242 1 242 0.140014 0.23391 0.772 
243 1 243 0.113422 0.395284 0.136305 
244 1 244 0.672691 0.857375 0.898826 
245 1 245 0.854315 0.0375332 0.323131 
246 1 246 0.946812 0.720529 0.262995 
247 1 247 0.230657 0.636397 0.927147 
248 1 248 0.0587423 0.58267 0.352374 
249 1 249 0.754069 0.617008 0.281573 
250 1 250 0.913412 0.46239 0.126458 
251 1 251 0.889353 0.53794 0.0673193 
252 1 252 0.050997 0.819834 0.129862 
253 1 253 0.415586 0.0345942 0.90855 
254 1 254 0.335365 0.758886 0.77594 
255 1 255 0.461668 0.944976 0.214408 
256 1 256 0.397571 0.221487 0.831864 
257 1 257 0.980009 0.827808 0.0141052 
258 1 258 0.471103 0.656703 0.810172 
259 1 259 0.203016 0.0271041 0.85181 
260 1 260 0.216755 0.675746 0.1271 
261 1 261 0.798487 0.326804 0.371895 
262 1 262 0.635106 0.871635 0.742121 
263 1 263 0.811855 0.555315 0.755902 
264 1 264 0.101199 0.035517 0.533459 
265 1 265 0.678005 0.619567 0.892749 
266 1 266 0.0529002 0.509966 0.285025 
267 1 267 0.0500448 0.925836 0.346891 
268 1 268 0.00389773 0.200813 0.2271 
269 1 269 0.445533 0.722765 0.298247 
270 1 270 0.763472 0.0350943 0.325845 
271 1 271 0.483895 0.411129 0.814544 
272 1 272 0.743227 0.922423 0.958995 
273 1 273 0.766713 0.715983 0.208344 
274 1 274 0.203166 0.0104799 0.974578 
275 1 275 0.294636 0.992745 0.050615 
276 1 276 0.281079 0.434216 0.299029 
277 1 277 0.571762 0.677472 0.766028 
278 1 278 0.8064 0.35058 0.638163 
279 1 279 0.0669077 0.284948 0.305263 
280 1 280 0.394994 0.558744 0.901616 
281 1 281 0.497568 0.705113 0.0942445 
282 1 282 0.90116 0.487305 0.300671 
283 1 283 0.735049 0.900917 0.234637 
284 1 284 0.45294 0.467818 0.17218 
285 1 285 0.55738 0.340241 0.881459 
286 1 286 0.493994 0.955517 0.537857 
287 1 287 0.876421 0.154902 0.217465 
288 1 288 0.781605 0.326871 0.852622 
289 1 289 0.706732 0.538234 0.242645 
290 1 290 0.853291 0.0204952 0.407241 
291 1 291 0.162026 0.858249 0.44777 
292 1 292 0.941728 0.0589199 0.866163 
293 1 293 0.837364 0.49095 0.394871 
294 1 294 0.609641 0.238333 0.432247 
295 1 295 0.931526 0.212929 0.0126233 
296 1 296 0.450786 0.797994 0.140605 
297 1 297 0.366164 0.132089 0.675764 
298 1 298 0.346193 0.872503 0.0869688 
299 1 299 0.660469 0.754759 0.759218 
300 1 300 0.930624 0.946198 0.332609 
301 1 301 0.432721 0.343812 0.440317 
302 1 302 0.520521 0.564187 0.588664 
303 1 303 0.650758 0.243125 0.0100951 
304 1 304 0.294001 0.972734 0.560138 
305 1 305 0.101225 0.513604 0.60343 
306 1 306 0.248098 0.877704 0.540779 
307 1 307 0.161439 0.191787 0.676792 
308 1 308 0.384876 0.0161868 0.271688 
309 1 309 0.682941 0.0643021 0.384253 
310 1 310 0.179215 0.544084 0.961118 
311 1 311 0.872036 0.163035 0.566141 
312 1 312 0.177874 0.922802 0.623959 
313 1 313 0.0926335 0.199515 0.42877 
314 1 314 0.273689 0.596831 0.0794108 
315 1 315 0.157803 0.032614 0.764547 
316 1 316 0.269678 0.596297 0.210174 
317 1 317 0.219979 0.320502 0.839349 
318 1 318 0.218053 0.190716 0.269083 
319 1 319 0.167223 0.905044 0.0176226 
320 1 320 0.793465 0.186015 0.498792 
321 1 321 0.38108 0.630938 0.840045 
322 1 322 0.233624 0.530448 0.302612 
323 1 323 0.791161 0.722468 0.0217925 
324 1 324 0.231555 0.49011 0.230267 
325 1 325 0.0493858 0.684604 0.243224 
326 1 326 0.115348 0.540975 0.878805 
327 1 327 0.683515 0.92418 0.363026 
328 1 328 0.53676 0.131236 0.562586 
329 1 329 0.264245 0.791663 0.589831 
330 1 330 0.126206 0.213318 0.151437 
331 1 331 0.228881 0.870761 0.0842319 
332 1 332 0.556067 0.191785 0.377521 
333 1 333 0.458745 0.180347 0.640663 
334 1 334 0.982294 0.788081 0.490473 
335 1 335 0.938061 0.763009 0.677567 
336 1 336 0.23691 0.253394 0.737364 
337 1 337 0.838008 0.917027 0.25162 
338 1 338 0.746808 0.826169 0.740028 
339 1 339 0.67344 0.294099 0.09445 
340 1 340 0.319894 0.427164 0.104834 
341 1 341 0.24457 0.488595 0.0423282 
342 1 342 0.855105 0.251453 0.569983 
343 1 343 0.237439 0.305277 0.935237 
344 1 344 0.452037 0.854306 0.675224 
345 1 345 0.63031 0.701072 0.87387 
346 1 346 0.776409 0.186872 0.784367 
347 1 347 0.581627 0.814485 0.247115 
348 1 348 0.191106 0.570512 0.164756 
349 1 349 0.584391 0.659972 0.102389 
350 1 350 0.618572 0.0538884 0.595327 
351 1 351 0.350167 0.217373 0.0815681 
352 1 352 0.812237 0.472989 0.00928466 
353 1 353 0.527036 0.599813 0.745963 
354 1 354 0.797622 0.323214 0.255225 
355 1 355 0.308931 0.321638 0.640337 
356 1 356 0.84149 0.668302 0.578539 
357 1 357 0.694979 0.790916 0.971649 
358 1 358 0.381947 0.769732 0.610316 
359 1 359 0.54182 0.110684 0.685422 
360 1 360 0.925916 0.324743 0.104653 
361 1 361 0.443177 0.854629 0.585338 
362 1 362 0.704773 0.383006 0.552376 
363 1 363 0.675195 0.288503 0.378751 
364 1 364 0.73276 0.0605773 0.137106 
365 1 365 0.0288086 0.616664 0.0965914 
366 1 366 0.347314 0.684167 0.58542 
367 1 367 0.578103 0.138337 0.0476257 
368 1 368 0.14591 0.20716 0.336628 
369 1 369 0.390504 0.293795 0.67893 
370 1 370 0.807305 0.236767 0.210965 
371 1 371 0.0664385 0.537932 0.0632583 
372 1 372 0.888779 0.414351 0.689735 
373 1 373 0.41746 0.941708 0.31986 
374 1 374 0.761696 0.423244 0.141059 
375 1 375 0.707963 0.0420201 0.537439 
376 1 376 0.910093 0.509142 0.727207 
377 1 377 0.75056 0.0963718 0.991832 
378 1 378 0.156731 0.299197 0.71505 
379 1 379 0.01765 0.979881 0.883055 
380 1 380 0.979639 0.612612 0.299385 
381 1 381 0.238779 0.0445847 0.725864 
382 1 382 0.146265 0.743609 0.416007 
383 1 383 0.615323 0.741235 0.590595 
384 1 384 0.858506 0.842127 0.581685 
385 1 385 0.893734 0.194727 0.751321 
386 1 386 0.592572 0.235303 0.10263 
387 1 387 0.576556 0.920653 0.0963759 
388 1 388 0.8033 0.481885 0.220466 
389 1 389 0.910494 0.816041 0.229779 
390 1 390 0.354218 0.192636 0.323543 
391 1 391 0.317506 0.668611 0.754528 
392 1 392 0.703143 0.878945 0.656259 
393 1 393 0.959002 0.45321 0.839256 
394 1 394 0.758159 0.659044 0.592938 
395 1 395 0.5434 0.334134 0.266135 
396 1 396 0.852301 0.390126 0.871266 
397 1 397 0.517352 0.781704 0.535123 
398 1 398 0.470691 0.0248323 0.368647 
399 1 399 0.26944 0.689192 0.224308 
400 1 400 0.376629 0.217374 0.584928 
401 1 401 0.870624 0.0993533 0.796343 
402 1 402 0.494412 0.763597 0.0135377 
403 1 403 0.956869 0.147505 0.169816 
404 1 404 0.423444 0.0290696 0.999526 
405 1 405 0.917021 0.409604 0.497323 
406 1 406 0.465527 0.358283 0.109562 
407 1 407 0.148149 0.564067 0.445631 
408 1 408 0.936292 0.781839 0.584087 
409 1 409 0.487736 0.0769475 0.622122 
410 1 410 0.895803 0.668657 0.408669 
411 1 411 0.405886 0.802735 0.50116 
412 1 412 0.233858 0.270529 0.210382 
413 1 413 0.0368636 0.303637 0.924977 
414 1 414 0.31762 0.415487 0.402918 
415 1 415 0.891772 0.564268 0.373702 
416 1 416 0.228468 0.512157 0.476163 
417 1 417 0.578891 0.511369 0.960185 
418 1 418 0.311538 0.678479 0.0485067 
419 1 419 0.647893 0.331411 0.950549 
420 1 420 0.134639 0.313748 0.217109 
421 1 421 0.260057 0.0862636 0.21003 
422 1 422 0.987257 0.414056 0.409597 
423 1 423 0.315881 0.925946 0.767286 
424 1 424 0.270224 0.94398 0.882224 
425 1 425 0.10703 0.946803 0.24971 
426 1 426 0.827879 0.177908 0.0375018 
427 1 427 0.634533 0.31516 0.475646 
428 1 428 0.26531 0.379761 0.732708 
429 1 429 0.326483 0.142873 0.860064 
430 1 430 0.760822 0.0676443 0.836103 
431 1 431 0.018831 0.592226 0.586433 
432 1 432 0.666652 0.684099 0.710806 
433 1 433 0.199665 0.656145 0.395851 
434 1 434 0.469187 0.744061 0.621405 
435 1 435 0.943375 0.245977 0.910453 
436 1 436 0.23864 0.853235 0.944709 
437 1 437 0.688008 0.634237 0.18557 
438 1 438 0.997145 0.372166 0.500965 
439 1 439 0.513655 0.225845 0.989936 
440 1 440 0.0876828 0.747048 0.485963 
441 1 441 0.591865 0.512814 0.493317 
442 1 442 0.666402 0.434856 0.153628 
443 1 443 0.397816 0.00285831 0.551163 
444 1 444 0.191511 0.191388 0.0810951 
445 1 445 0.889537 0.858377 0.0533545 
446 1 446 0.930077 0.963511 0.0195177 
447 1 447 0.204074 0.40298 0.969937 
448 1 448 0.347314 0.72409 0.503746 
449 1 449 0.848161 0.717766 0.65948 
450 1 450 0.559522 0.456576 0.320074 
451 1 451 0.138583 0.10664 0.835297 
452 1 452 0.291478 0.462005 0.820948 
453 1 453 0.616115 0.238515 0.313294 
454 1 454 0.24401 0.91312 0.440909 
455 1 455 0.271274 0.502174 0.729946 
456 1 456 0.0165002 0.532065 0.756548 
457 1 457 0.195399 0.518315 0.785909 
458 1 458 0.727418 0.468138 0.0652956 
459 1 459 0.029345 0.0195112 0.174293 
460 1 460 0.16909 0.780334 0.290788 
461 1 461 0.329138 0.980119 0.960078 
462 1 462 0.596129 0.891005 0.645766 
463 1 463 0.522213 0.464815 0.095476 
464 1 464 0.695804 0.302984 0.651466 
465 1 465 0.245378 0.623033 0.585012 
466 1 466 0.751436 0.46953 0.777458 
467 1 467 0.538353 0.780318 0.173561 
468 1 468 0.596052 0.0760092 0.211683 
469 1 469 0.199253 0.31613 0.448832 
470 1 470 0.360908 0.951711 0.637359 
471 1 471 0.705345 0.137303 0.476097 
472 1 472 0.596105 0.414067 0.894105 
473 1 473 0.782484 0.362541 0.0676133 
474 1 474 0.43655 0.12333 0.875851 
475 1 475 0.810846 0.973717 0.147248 
476 1 476 0.519391 0.627257 0.207875 
477 1 477 0.623346 0.49793 0.39536 
478 1 478 0.165951 0.403284 0.307209 
479 1 479 0.114753 0.363524 0.0339328 
480 1 480 0.190576 0.786845 0.48311 
481 1 481 0.524619 0.651533 0.35595 
482 1 482 0.334909 0.523766 0.244518 
483 1 483 0.35458 0.890726 0.260908 
484 1 484 0.894255 0.87992 0.845481 
485 1 485 0.185773 0.211288 0.953896 
486 1 486 0.0420844 0.493031 0.434305 
487 1 487 0.354918 0.358294 0.183735 
488 1 488 0.854812 0.0721159 0.915426 
489 1 489 0.440079 0.657984 0.000482152 
490 1 490 0.344479 0.446195 0.751825 
491 1 491 0.432426 0.0578837 0.186059 
492 1 492 0.819628 0.940937 0.354274 
493 1 493 0.249523 0.431683 0.671421 
494 1 494 0.336709 0.0271357 0.724925 
495 1 495 0.817084 0.751005 0.387338 
496 1 496 0.0618328 0.42523 0.666232 
497 1 497 0.903238 0.465175 0.219976 
498 1 498 0.575006 0.983495 0.853373 
499 1 499 0.242741 0.749537 0.918584 
500 1 500 0.775629 0.657336 0.894034 
501 1 501 0.838877 0.675662 0.290864 
502 1 502 0.0809393 0.380576 0.34978 
503 1 503 0.553625 0.867937 0.99954 
504 1 504 0.597702 0.40566 0.530143 
505 1 505 0.638451 0.865467 0.189539 
506 1 506 0.464901 0.437756 0.449737 
507 1 507 0.868775 0.770067 0.48697 
508 1 508 0.290035 0.583578 0.96031 
509 1 509 0.301123 0.190862 0.243357 
510 1 510 0.984705 0.686372 0.459477 
511 1 511 0.915281 0.992136 0.113009 
512 1 512 0.400238 0.135822 0.130717 
513 1 513 0.923096 0.498179 0.443883 
514 1 514 0.217586 0.232045 0.421454 
515 1 515 0.0174755 0.463262 0.553269 
516 1 516 0.926579 0.00838463 0.473153 
517 1 517 0.713847 0.0849708 0.634638 
518 1 518 0.991188 0.444501 0.729534 
519 1 519 0.765608 0.738111 0.706877 
520 1 520 0.419564 0.205744 0.947589 
521 1 521 0.33921 0.0941401 0.0520777 
522 1 522 0.684836 0.0246589 0.934031 
523 1 523 0.558889 0.471523 0.621815 
524 1 524 0.79034 0.0200164 0.766542 
525 1 525 0.409292 0.830145 0.878709 
526 1 526 0.0340348 0.271992 0.729307 
527 1 527 0.142968 0.0204518 0.630595 
528 1 528 0.246714 0.926326 0.314294 
529 1 529 0.9252 0.248313 0.387008 
530 1 530 0.420231 0.458162 0.559328 
531 1 531 0.662503 0.66381 0.293552 
532 1 532 0.901295 0.114175 0.658637 
533 1 533 0.584687 0.211388 0.714439 
534 1 534 0.915917 0.956597 0.912515 
535 1 535 0.511594 0.104455 0.326966 
536 1 536 0.562335 0.891102 0.45529 
537 1 537 0.888861 0.105955 0.102496 
538 1 538 0.289453 0.00346679 0.351413 
539 1 539 0.852448 0.27467 0.944448 
540 1 540 0.638087 0.344349 0.325014 
541 1 541 0.0371668 0.436384 0.0854388 
542 1 542 0.736374 0.366201 0.944526 
543 1 543 0.569916 0.00430408 0.305276 
544 1 544 0.994978 0.0592503 0.593701 
545 1 545 0.49175 0.03213 0.257953 
546 1 546 0.293087 0.979331 0.239234 
547 1 547 0.246159 0.467724 0.378775 
548 1 548 0.91997 0.63116 0.932382 
549 1 549 0.978382 0.888568 0.922884 
550 1 550 0.521033 0.207555 0.868885 
551 1 551 0.936242 0.781656 0.118587 
552 1 552 0.350121 0.86329 0.588061 
553 1 553 0.252082 0.98815 0.633128 
554 1 554 0.0363496 0.775545 0.704974 
555 1 555 0.936094 0.951709 0.720608 
556 1 556 0.989034 0.971857 0.255657 
557 1 557 0.220617 0.175161 0.166346 
558 1 558 0.071425 0.774547 0.615645 
559 1 559 0.648704 0.179823 0.837006 
560 1 560 0.772373 0.894361 0.422144 
561 1 561 0.116031 0.832311 0.0342645 
562 1 562 0.363055 0.75482 0.201989 
563 1 563 0.734559 0.637308 0.0588617 
564 1 564 0.158428 0.108798 0.294512 
565 1 565 0.571374 0.308417 0.0208928 
566 1 566 0.70815 0.98819 0.833039 
567 1 567 0.534126 0.0119678 0.450594 
568 1 568 0.626592 0.0049862 0.135506 
569 1 569 0.71904 0.251248 0.823343 
570 1 570 0.111957 0.218618 0.244921 
571 1 571 0.799036 0.932965 0.859351 
572 1 572 0.948848 0.276854 0.801834 
573 1 573 0.760778 0.192748 0.588199 
574 1 574 0.929964 0.0630967 0.367357 
575 1 575 0.311471 0.803817 0.935752 
576 1 576 0.844182 0.244965 0.842077 
577 1 577 0.70893 0.855945 0.0427449 
578 1 578 0.224711 0.983696 0.13362 
579 1 579 0.647583 0.859874 0.57732 
580 1 580 0.172458 0.668141 0.776575 
581 1 581 0.179437 0.720865 0.590406 
582 1 582 0.659854 0.551686 0.443911 
583 1 583 0.716147 0.802711 0.412404 
584 1 584 0.152006 0.867733 0.270171 
585 1 585 0.582926 0.931586 0.371861 
586 1 586 0.439321 0.840643 0.223015 
587 1 587 0.595463 0.604097 0.827781 
588 1 588 0.0197048 0.205049 0.896296 
589 1 589 0.30238 0.404582 0.911048 
590 1 590 0.383356 0.772027 0.984903 
591 1 591 0.52953 0.780975 0.439321 
592 1 592 0.787586 0.838278 0.522514 
593 1 593 0.54056 0.0644652 0.782592 
594 1 594 0.617945 0.805206 0.840865 
595 1 595 0.00722014 0.04341 0.340255 
596 1 596 0.474264 0.535702 0.672802 
597 1 597 0.178682 0.562688 0.553755 
598 1 598 0.26275 0.2559 0.101965 
599 1 599 0.0340426 0.463156 0.174338 
600 1 600 0.185294 0.301695 0.322037 
601 1 601 0.398054 0.62379 0.735239 
602 1 602 0.61126 0.304041 0.205779 
603 1 603 0.835679 0.0898444 0.477175 
604 1 604 0.54847 0.264762 0.53926 
605 1 605 0.00201357 0.187557 0.798291 
606 1 606 0.00628741 0.581824 0.990282 
607 1 607 0.644686 0.500777 0.788413 
608 1 608 0.965286 0.737389 0.933797 
609 1 609 0.334651 0.847526 0.821055 
610 1 610 0.12634 0.703918 0.326559 
611 1 611 0.792986 0.276474 0.124078 
612 1 612 0.127576 0.465025 0.0238969 
613 1 613 0.0412352 0.120176 0.509996 
614 1 614 0.368784 0.649064 0.25118 
615 1 615 0.191577 0.464659 0.577131 
616 1 616 0.20576 0.404758 0.0752437 
617 1 617 0.664016 0.66467 0.518447 
618 1 618 0.735964 0.172756 0.686914 
619 1 619 0.0984852 0.841673 0.369815 
620 1 620 0.83004 0.802393 0.139221 
621 1 621 0.153438 0.0220904 0.062395 
622 1 622 0.481886 0.0513089 0.0788725 
623 1 623 0.477024 0.890092 0.893654 
624 1 624 0.557765 0.579208 0.412265 
625 1 625 0.955851 0.238181 0.682753 
626 1 626 0.949779 0.357279 0.893028 
627 1 627 0.997454 0.780439 0.211785 
628 1 628 0.0119696 0.31601 0.401259 
629 1 629 0.137694 0.964022 0.71731 
630 1 630 0.199612 0.939257 0.201681 
631 1 631 0.140651 0.900378 0.156038 
632 1 632 0.637775 0.130176 0.662703 
633 1 633 0.501667 0.891418 0.279139 
634 1 634 0.39094 0.585912 0.0364133 
635 1 635 0.843001 0.597215 0.872631 
636 1 636 0.0477485 0.782423 0.299839 
637 1 637 0.0022793 0.702055 0.342735 
638 1 638 0.648369 0.914047 0.83375 
639 1 639 0.225697 0.96364 0.788476 
640 1 640 0.153871 0.42546 0.423177 
641 1 641 0.648005 0.894506 0.284819 
642 1 642 0.545784 0.342915 0.584863 
643 1 643 0.683719 0.887136 0.487172 
644 1 644 0.657502 0.0755635 0.0470801 
645 1 645 0.11381 0.474169 0.511259 
646 1 646 0.27113 0.2555 0.32211 
647 1 647 0.261474 0.702525 0.833589 
648 1 648 0.944827 0.0057457 0.624724 
649 1 649 0.157871 0.942537 0.535101 
650 1 650 0.23395 0.857618 0.85855 
651 1 651 0.470542 0.474946 0.90134 
652 1 652 0.487747 0.779834 0.839829 
653 1 653 0.698659 0.430137 0.843443 
654 1 654 0.0962596 0.162429 0.947127 
655 1 655 0.170838 0.800466 0.64893 
656 1 656 0.546242 0.550557 0.128921 
657 1 657 0.421728 0.742733 0.806703 
658 1 658 0.938239 0.672944 0.640135 
659 1 659 0.994377 0.504543 0.64397 
660 1 660 0.0637054 0.337559 0.656128 
661 1 661 0.104325 0.206695 0.531361 
662 1 662 0.844935 0.49686 0.517689 
663 1 663 0.344471 0.248876 0.171689 
664 1 664 0.0423005 0.8737 0.51189 
665 1 665 0.88555 0.178145 0.934178 
666 1 666 0.533708 0.677055 0.881198 
667 1 667 0.0479224 0.667296 0.0244687 
668 1 668 0.547601 0.497215 0.838758 
669 1 669 0.768499 0.746765 0.3009 
670 1 670 0.477698 0.341556 0.0178313 
671 1 671 0.312871 0.214249 0.419832 
672 1 672 0.0857848 0.888667 0.896753 
673 1 673 0.000334873 0.614672 0.852426 
674 1 674 0.320352 0.536964 0.144467 
675 1 675 0.131905 0.480549 0.344035 
676 1 676 0.746185 0.78483 0.0785254 
677 1 677 0.505838 0.0961151 0.978196 
678 1 678 0.993057 0.220506 0.465668 
679 1 679 0.954294 0.691934 0.0368727 
680 1 680 0.606455 0.077497 0.506563 
681 1 681 0.692388 0.0912521 0.234748 
682 1 682 0.513878 0.179861 0.775033 
683 1 683 0.695842 0.574307 0.769794 
684 1 684 0.97715 0.199314 0.571345 
685 1 685 0.426892 0.13757 0.0353788 
686 1 686 0.409561 0.345126 0.581945 
687 1 687 0.288034 0.25932 0.544832 
688 1 688 0.50582 0.49821 0.384084 
689 1 689 0.984141 0.536861 0.891232 
690 1 690 0.708265 0.388811 0.274935 
691 1 691 0.50572 0.17265 0.0868211 
692 1 692 0.451742 0.717982 0.918501 
693 1 693 0.20248 0.314515 0.0222516 
694 1 694 0.914346 0.34663 0.240981 
695 1 695 0.663896 0.804268 0.673259 
696 1 696 0.413184 0.941313 0.723043 
697 1 697 0.50299 0.394244 0.176647 
698 1 698 0.0367588 0.988413 0.742959 
699 1 699 0.803852 0.418226 0.294277 
700 1 700 0.617164 0.481775 0.0535241 
701 1 701 0.613723 0.260275 0.913112 
702 1 702 0.380172 0.371341 0.760175 
703 1 703 0.920286 0.421629 0.0347919 
704 1 704 0.573874 0.566993 0.0282611 
705 1 705 0.372957 0.646588 0.950641 
706 1 706 0.107227 0.0082255 0.850848 
707 1 707 0.207586 0.116353 0.929274 
708 1 708 0.314016 0.547947 0.838358 
709 1 709 0.146268 0.758275 0.740781 
710 1 710 0.716434 0.56104 0.653269 
711 1 711 0.657346 0.473174 0.293765 
712 1 712 0.632024 0.391052 0.63602 
713 1 713 0.933117 0.165231 0.849363 
714 1 714 0.034355 0.674617 0.937055 
715 1 715 0.553163 0.763746 0.785773 
716 1 716 0.337436 0.488907 0.51876 
717 1 717 0.865693 0.252823 0.314551 
718 1 718 0.463497 0.704403 0.194817 
719 1 719 0.895387 0.769097 0.999967 
720 1 720 0.181207 0.189537 0.571164 
721 1 721 0.327971 0.712702 0.326205 
722 1 722 0.382923 0.267501 0.268402 
723 1 723 0.969623 0.594179 0.692753 
724 1 724 0.495975 0.582819 0.9606 
725 1 725 0.824561 0.615057 0.995153 
726 1 726 0.394257 0.776123 0.411776 
727 1 727 0.161168 0.280357 0.627402 
728 1 728 0.908837 0.532772 0.621037 
729 1 729 0.600515 0.571038 0.309527 
730 1 730 0.250751 0.334607 0.130376 
731 1 731 0.0295914 0.0810079 0.0029117 
732 1 732 0.63251 0.0621351 0.84947 
733 1 733 0.801678 0.756803 0.570352 
734 1 734 0.221848 0.0668969 0.557784 
735 1 735 0.504647 0.237177 0.259944 
736 1 736 0.861279 0.996706 0.656649 
737 1 737 0.0541435 0.858472 0.225727 
738 1 738 0.581809 0.696107 0.467391 
739 1 739 0.731144 0.342032 0.460094 
740 1 740 0.860632 0.948205 0.563215 
741 1 741 0.169385 0.126078 0.0238746 
742 1 742 0.641269 0.844031 0.0879665 
743 1 743 0.257342 0.0976687 0.803458 
744 1 744 0.0775408 0.966954 0.958025 
745 1 745 0.0527718 0.284458 0.831792 
746 1 746 0.840603 0.0339841 0.0490309 
747 1 747 0.658455 0.967646 0.646887 
748 1 748 0.165144 0.819981 0.829293 
749 1 749 0.818649 0.81269 0.251019 
750 1 750 0.787641 0.167113 0.137024 
751 1 751 0.137913 0.132653 0.206673 
752 1 752 0.304335 0.812145 0.0390065 
753 1 753 0.769946 0.100262 0.412377 
754 1 754 0.0599598 0.772566 0.889408 
755 1 755 0.711565 0.256931 0.920915 
756 1 756 0.894898 0.029271 0.199804 
757 1 757 0.748196 0.93053 0.573447 
758 1 758 0.00777817 0.946202 0.650287 
759 1 759 0.851094 0.276579 0.0392205 
760 1 760 0.638345 0.636464 0.0174192 
761 1 761 0.318853 0.900844 0.369732 
762 1 762 0.167256 0.379062 0.643559 
763 1 763 0.282149 0.549078 0.556846 
764 1 764 0.471563 0.206875 0.348514 
765 1 765 0.752756 0.685399 0.126014 
766 1 766 0.733233 0.615951 0.447871 
767 1 767 0.790848 0.0183751 0.600951 
768 1 768 0.498916 0.263042 0.445189 
769 1 769 0.760813 0.993724 0.408599 
770 1 770 0.485555 0.387806 0.339628 
771 1 771 0.328534 0.651089 0.155719 
772 1 772 0.0150226 0.84982 0.627076 
773 1 773 0.984552 0.436798 0.275998 
774 1 774 0.392578 0.400797 0.0401696 
775 1 775 0.740636 0.475478 0.607414 
776 1 776 0.804563 0.942367 0.0572792 
777 1 777 0.625347 0.561414 0.687279 
778 1 778 0.719267 0.659488 0.793646 
779 1 779 0.55156 0.996601 0.658653 
780 1 780 0.88805 0.356712 0.420579 
781 1 781 0.309514 0.219833 0.896902 
782 1 782 0.428448 0.825112 0.320382 
783 1 783 0.857099 0.526796 0.921061 
784 1 784 0.406791 0.244466 0.40439 
785 1 785 0.238064 0.0991596 0.64843 
786 1 786 0.737568 0.178065 0.250568 
787 1 787 0.985094 0.396121 0.630348 
788 1 788 0.274484 0.0790084 0.311743 