ITEM: TIMESTEP
40000000
ITEM: NUMBER OF ATOMS
26000
ITEM: BOX BOUNDS pp pp pp
4.6473410384421245e-02 6.4688215136296549e+01
4.6473410384421245e-02 6.4688215136296549e+01
4.6473410384421245e-02 6.4688215136296549e+01
ITEM: ATOMS id type mol xs ys zs 
1 1 1 0.905677 0.245727 0.142042 
2 2 1 0.888677 0.243037 0.141712 
3 2 1 0.907452 0.261657 0.145075 
4 2 1 0.910624 0.242148 0.126905 
5 1 1 0.915502 0.233437 0.158955 
6 2 1 0.916378 0.218472 0.151598 
7 1 1 0.936696 0.240846 0.164843 
8 2 1 0.934344 0.249083 0.179472 
9 2 1 0.943011 0.251714 0.153473 
10 1 1 0.950331 0.221369 0.167428 
11 2 1 0.95097 0.21479 0.152178 
12 2 1 0.942482 0.209643 0.177482 
13 1 1 0.971976 0.224852 0.177045 
14 2 1 0.971062 0.230626 0.192513 
15 1 1 0.983617 0.204366 0.17833 
16 2 1 0.995991 0.207042 0.188979 
17 2 1 0.974632 0.192306 0.185652 
18 2 1 0.988326 0.197998 0.163358 
19 1 1 0.902257 0.227267 0.179144 
20 2 1 0.886504 0.221747 0.17468 
21 2 1 0.910406 0.215328 0.187362 
22 2 1 0.899303 0.241118 0.189136 
23 1 1 0.985121 0.239646 0.162251 
24 2 1 0.976824 0.253241 0.162615 
25 2 1 -1.5831e-05 0.242627 0.169545 
26 2 1 0.987088 0.233238 0.146516 
27 1 2 0.961772 0.00139645 0.673582 
28 2 2 0.961518 0.987012 0.682977 
29 2 2 0.975133 0.0106421 0.678153 
30 2 2 0.9465 0.00878695 0.677178 
31 1 2 0.962672 0.996065 0.650147 
32 2 2 0.94699 0.99079 0.646296 
33 1 2 0.967607 0.0139286 0.635526 
34 2 2 0.964181 0.00848931 0.620889 
35 2 2 0.984319 0.0139929 0.635767 
36 1 2 0.958853 0.0357995 0.639325 
37 2 2 0.963766 0.0416827 0.65401 
38 2 2 0.94271 0.0363927 0.640823 
39 1 2 0.965229 0.0494798 0.621769 
40 2 2 0.981858 0.0497266 0.620502 
41 1 2 0.95391 0.0420711 0.602926 
42 2 2 0.961321 0.0295521 0.594975 
43 2 2 0.938196 0.0380046 0.606514 
44 2 2 0.951968 0.0551861 0.591689 
45 1 2 0.976528 0.977307 0.644703 
46 2 2 0.976968 0.96421 0.656099 
47 2 2 0.973435 0.971415 0.629123 
48 2 2 0.993061 0.984277 0.642247 
49 1 2 0.960595 0.0723295 0.625462 
50 2 2 0.944097 0.0762992 0.622206 
51 2 2 0.963845 0.0771951 0.641608 
52 2 2 0.971281 0.082085 0.616642 
53 1 3 0.682387 0.725031 0.836073 
54 2 3 0.684563 0.722028 0.853113 
55 2 3 0.681155 0.710764 0.826895 
56 2 3 0.696509 0.731631 0.830973 
57 1 3 0.663759 0.740141 0.831988 
58 2 3 0.649365 0.73305 0.838999 
59 1 3 0.666783 0.759827 0.843897 
60 2 3 0.658057 0.772291 0.835324 
61 2 3 0.682798 0.763457 0.844685 
62 1 3 0.659064 0.760417 0.866578 
63 2 3 0.670604 0.752554 0.875792 
64 2 3 0.644984 0.749966 0.867931 
65 1 3 0.655086 0.782156 0.875501 
66 2 3 0.653593 0.777973 0.892487 
67 1 3 0.672974 0.798168 0.8713 
68 2 3 0.686698 0.796318 0.880132 
69 2 3 0.67594 0.799628 0.854433 
70 2 3 0.667778 0.812547 0.877257 
71 1 3 0.661829 0.745251 0.807911 
72 2 3 0.675358 0.752922 0.801371 
73 2 3 0.659002 0.733599 0.796425 
74 2 3 0.648244 0.75572 0.807469 
75 1 3 0.63321 0.789452 0.870578 
76 2 3 0.632604 0.789548 0.854042 
77 2 3 0.622341 0.779038 0.877897 
78 2 3 0.630828 0.805463 0.87674 
79 1 4 0.606332 0.0274672 0.873697 
80 2 4 0.617412 0.0204224 0.863729 
81 2 4 0.599047 0.0398219 0.864918 
82 2 4 0.615339 0.0344212 0.886235 
83 1 4 0.590552 0.0118188 0.883165 
84 2 4 0.58484 0.0196372 0.897502 
85 1 4 0.571621 0.00698461 0.868184 
86 2 4 0.560029 1.00112 0.879852 
87 2 4 0.574639 0.994285 0.857676 
88 1 4 0.562351 0.0243092 0.855701 
89 2 4 0.572835 0.0329959 0.846179 
90 2 4 0.555965 0.0365291 0.866205 
91 1 4 0.543669 0.0165013 0.84195 
92 2 4 0.548475 0.00350726 0.832301 
93 1 4 0.525112 0.0101504 0.85445 
94 2 4 0.529039 0.996437 0.8635 
95 2 4 0.520291 0.0237701 0.863226 
96 2 4 0.512233 0.00569415 0.845252 
97 1 4 0.600987 0.991964 0.890064 
98 2 4 0.613292 0.995131 0.90134 
99 2 4 0.590623 0.982112 0.898526 
100 2 4 0.608051 0.983831 0.879381 
101 1 4 0.536305 0.0350098 0.827426 
102 2 4 0.526136 0.0467654 0.833214 
103 2 4 0.549699 0.0439959 0.821739 
104 2 4 0.526854 0.0282773 0.813682 
105 1 5 0.766432 0.219889 0.26165 
106 2 5 0.780185 0.221117 0.251741 
107 2 5 0.753213 0.21295 0.252664 
108 2 5 0.762108 0.234571 0.270697 
109 1 5 0.771336 0.202596 0.276874 
110 2 5 0.776146 0.188683 0.267087 
111 1 5 0.788246 0.20763 0.294644 
112 2 5 0.790173 0.196677 0.306924 
113 2 5 0.782564 0.22069 0.303416 
114 1 5 0.80985 0.21178 0.284731 
115 2 5 0.811882 0.227372 0.280241 
116 2 5 0.810947 0.201366 0.271352 
117 1 5 0.826467 0.2067 0.301456 
118 2 5 0.822689 0.191537 0.307663 
119 1 5 0.848246 0.203062 0.292673 
120 2 5 0.845428 0.194823 0.278472 
121 2 5 0.855285 0.218259 0.289512 
122 2 5 0.85897 0.193949 0.301532 
123 1 5 0.751754 0.197374 0.2872 
124 2 5 0.753799 0.183195 0.294705 
125 2 5 0.747262 0.20775 0.299 
126 2 5 0.738664 0.194729 0.277108 
127 1 5 0.82652 0.222614 0.3199 
128 2 5 0.838594 0.221175 0.332041 
129 2 5 0.82683 0.238471 0.314875 
130 2 5 0.813016 0.22084 0.329511 
131 1 6 0.983105 0.88313 0.311781 
132 2 6 0.967477 0.876983 0.309964 
133 2 6 0.991763 0.870303 0.306557 
134 2 6 0.987553 0.884588 0.328162 
135 1 6 0.986021 0.903942 0.299828 
136 2 6 0.984925 0.9001 0.283395 
137 1 6 0.967453 0.918927 0.303427 
138 2 6 0.966185 0.922888 0.320109 
139 2 6 0.952904 0.911991 0.29939 
140 1 6 0.969176 0.939331 0.290104 
141 2 6 0.973496 0.935219 0.274107 
142 2 6 0.983655 0.94635 0.295083 
143 1 6 0.950295 0.954114 0.292866 
144 2 6 0.944323 0.954358 0.309184 
145 1 6 0.954797 0.976837 0.289223 
146 2 6 0.941215 0.985828 0.284436 
147 2 6 0.964526 0.983538 0.300674 
148 2 6 0.96382 0.976333 0.27533 
149 1 6 0.00665956 0.913657 0.304866 
150 2 6 0.0189115 0.902441 0.303937 
151 2 6 0.0110326 0.925512 0.294664 
152 2 6 0.00753527 0.919867 0.321089 
153 1 6 0.930726 0.946984 0.279683 
154 2 6 0.917538 0.957483 0.280503 
155 2 6 0.934553 0.947194 0.263659 
156 2 6 0.9256 0.930797 0.281943 
157 1 7 0.427683 0.928029 0.919745 
158 2 7 0.436884 0.923941 0.906705 
159 2 7 0.439291 0.926784 0.931788 
160 2 7 0.417693 0.915077 0.919919 
161 1 7 0.418706 0.950623 0.916687 
162 2 7 0.411317 0.954132 0.930558 
163 1 7 0.4355 0.965641 0.91097 
164 2 7 0.429048 0.980195 0.906548 
165 2 7 0.443635 0.958768 0.897521 
166 1 7 0.450001 0.970573 0.928498 
167 2 7 0.454045 0.95636 0.936142 
168 2 7 0.441017 0.979162 0.939924 
169 1 7 0.467295 0.985303 0.924442 
170 2 7 0.461987 0.998389 0.915307 
171 1 7 0.476681 0.995098 0.943816 
172 2 7 0.481968 0.983285 0.95448 
173 2 7 0.489292 0.00461937 0.939647 
174 2 7 0.465004 1.00531 0.952536 
175 1 7 0.400966 0.952964 0.900027 
176 2 7 0.386786 0.958296 0.907321 
177 2 7 0.40479 0.961757 0.885614 
178 2 7 0.397244 0.93658 0.894515 
179 1 7 0.485509 0.974684 0.911815 
180 2 7 0.48258 0.971307 0.895857 
181 2 7 0.499972 0.982794 0.914045 
182 2 7 0.488421 0.960959 0.92033 
183 1 8 0.364025 0.513362 0.151051 
184 2 8 0.36872 0.501614 0.159997 
185 2 8 0.350119 0.519781 0.159136 
186 2 8 0.3585 0.50753 0.136255 
187 1 8 0.380898 0.528684 0.147173 
188 2 8 0.384035 0.536694 0.161215 
189 1 8 0.401883 0.519164 0.144817 
190 2 8 0.406652 0.512731 0.160237 
191 2 8 0.412673 0.53258 0.143251 
192 1 8 0.402766 0.502759 0.127079 
193 2 8 0.397211 0.508405 0.112835 
194 2 8 0.39079 0.491673 0.132135 
195 1 8 0.423647 0.492849 0.121894 
196 2 8 0.422096 0.480326 0.109931 
197 1 8 0.437024 0.508469 0.11226 
198 2 8 0.430654 0.509923 0.0968902 
199 2 8 0.43401 0.52443 0.11646 
200 2 8 0.453429 0.504696 0.112068 
201 1 8 0.375706 0.54525 0.13208 
202 2 8 0.363325 0.554362 0.138715 
203 2 8 0.388327 0.556192 0.127412 
204 2 8 0.369418 0.538805 0.117462 
205 1 8 0.434252 0.484028 0.141283 
206 2 8 0.423561 0.473164 0.149623 
207 2 8 0.448875 0.475844 0.138358 
208 2 8 0.439927 0.49538 0.153001 
209 1 9 0.647407 0.871331 0.143612 
210 2 9 0.645959 0.887799 0.146969 
211 2 9 0.653461 0.870784 0.126744 
212 2 9 0.631427 0.864216 0.147385 
213 1 9 0.663867 0.860771 0.156569 
214 2 9 0.661602 0.843819 0.154344 
215 1 9 0.687236 0.865599 0.148946 
216 2 9 0.691234 0.881469 0.154539 
217 2 9 0.689603 0.867646 0.132635 
218 1 9 0.702101 0.848961 0.156991 
219 2 9 0.697253 0.834074 0.15081 
220 2 9 0.699364 0.84527 0.173572 
221 1 9 0.726493 0.853031 0.151749 
222 2 9 0.729669 0.867744 0.156772 
223 1 9 0.741215 0.836918 0.162395 
224 2 9 0.75693 0.837749 0.15681 
225 2 9 0.742867 0.841395 0.178347 
226 2 9 0.735432 0.821496 0.159581 
227 1 9 0.661815 0.864232 0.179257 
228 2 9 0.665052 0.880387 0.181121 
229 2 9 0.645727 0.862039 0.18476 
230 2 9 0.671896 0.855902 0.189524 
231 1 9 0.731319 0.854592 0.128353 
232 2 9 0.721559 0.864862 0.119268 
233 2 9 0.746887 0.859525 0.124172 
234 2 9 0.731858 0.838881 0.120709 
235 1 10 0.460031 0.168471 0.184912 
236 2 10 0.455514 0.183024 0.192485 
237 2 10 0.466551 0.158753 0.196873 
238 2 10 0.47079 0.169368 0.172995 
239 1 10 0.439211 0.159925 0.175078 
240 2 10 0.428407 0.162811 0.187522 
241 1 10 0.433144 0.174705 0.156828 
242 2 10 0.42114 0.165698 0.149165 
243 2 10 0.444968 0.174264 0.14393 
244 1 10 0.427332 0.198169 0.161074 
245 2 10 0.441793 0.205853 0.165563 
246 2 10 0.415392 0.198181 0.172496 
247 1 10 0.421308 0.209115 0.140136 
248 2 10 0.41896 0.225368 0.143923 
249 1 10 0.439097 0.207557 0.123736 
250 2 10 0.437141 0.19259 0.116501 
251 2 10 0.436708 0.21837 0.112091 
252 2 10 0.45407 0.208559 0.129709 
253 1 10 0.440313 0.136511 0.169864 
254 2 10 0.426844 0.131489 0.161359 
255 2 10 0.4544 0.134375 0.160722 
256 2 10 0.442072 0.125535 0.183504 
257 1 10 0.399151 0.202882 0.130806 
258 2 10 0.398371 0.187113 0.125012 
259 2 10 0.388901 0.203447 0.143567 
260 2 10 0.392207 0.213028 0.118359 
261 1 11 0.513309 0.26079 0.566493 
262 2 11 0.499714 0.255203 0.558124 
263 2 11 0.523252 0.265829 0.553578 
264 2 11 0.519153 0.246563 0.573178 
265 1 11 0.508881 0.278402 0.581287 
266 2 11 0.523546 0.280504 0.589432 
267 1 11 0.508184 0.300137 0.570327 
268 2 11 0.495177 0.301022 0.557772 
269 2 11 0.521928 0.30366 0.56036 
270 1 11 0.504653 0.318174 0.584924 
271 2 11 0.513627 0.3198 0.598934 
272 2 11 0.490541 0.316364 0.591792 
273 1 11 0.505789 0.338739 0.573698 
274 2 11 0.495931 0.336794 0.559152 
275 1 11 0.495014 0.356157 0.586804 
276 2 11 0.503969 0.360195 0.601057 
277 2 11 0.493251 0.371473 0.578636 
278 2 11 0.479913 0.350144 0.59223 
279 1 11 0.490025 0.274468 0.596162 
280 2 11 0.488733 0.284113 0.610078 
281 2 11 0.47616 0.272264 0.586933 
282 2 11 0.491414 0.259456 0.603739 
283 1 11 0.527575 0.344388 0.566786 
284 2 11 0.53737 0.332745 0.560957 
285 2 11 0.527786 0.356464 0.55504 
286 2 11 0.534325 0.35034 0.58007 
287 1 12 0.0634195 0.368851 0.0346164 
288 2 12 0.0490259 0.372713 0.0417895 
289 2 12 0.0616035 0.35488 0.0264815 
290 2 12 0.0743704 0.36592 0.047798 
291 1 12 0.0694672 0.387082 0.0210451 
292 2 12 0.0705331 0.400413 0.0306245 
293 1 12 0.0900953 0.383416 0.0111807 
294 2 12 0.0938875 0.395774 0.00177995 
295 2 12 0.089864 0.37051 1.00149 
296 1 12 0.107209 0.37988 0.027512 
297 2 12 0.10859 0.36213 0.0301185 
298 2 12 0.103552 0.387565 0.0407236 
299 1 12 0.128198 0.390558 0.0206531 
300 2 12 0.129487 0.388172 0.00453578 
301 1 12 0.126972 0.414826 0.022934 
302 2 12 0.138647 0.420398 0.0128016 
303 2 12 0.113869 0.422669 0.0177981 
304 2 12 0.130039 0.420363 0.0387832 
305 1 12 0.0538453 0.388355 0.00433629 
306 2 12 0.0549332 0.373658 0.996411 
307 2 12 0.0380065 0.388728 0.00933808 
308 2 12 0.0583002 0.402019 0.994977 
309 1 12 0.148457 0.380768 0.0301411 
310 2 12 0.152051 0.365749 0.0225386 
311 2 12 0.161473 0.389674 0.0261882 
312 2 12 0.148627 0.378944 0.0459524 
313 1 13 0.333334 0.495237 0.807758 
314 2 13 0.324314 0.481432 0.809896 
315 2 13 0.349717 0.489833 0.810397 
316 2 13 0.328045 0.507129 0.818751 
317 1 13 0.330332 0.503283 0.785469 
318 2 13 0.314707 0.507242 0.785129 
319 1 13 0.341455 0.523634 0.781569 
320 2 13 0.357631 0.520515 0.781016 
321 2 13 0.340086 0.534569 0.793962 
322 1 13 0.332812 0.535496 0.763533 
323 2 13 0.316401 0.540257 0.76706 
324 2 13 0.33095 0.524744 0.751134 
325 1 13 0.34394 0.556184 0.757255 
326 2 13 0.336393 0.565295 0.744424 
327 1 13 0.347358 0.571442 0.775256 
328 2 13 0.351925 0.564711 0.789488 
329 2 13 0.360002 0.582179 0.770414 
330 2 13 0.333282 0.579192 0.778373 
331 1 13 0.334861 0.486704 0.769248 
332 2 13 0.327274 0.490097 0.755476 
333 2 13 0.35131 0.487902 0.766215 
334 2 13 0.330134 0.470954 0.77497 
335 1 13 0.365607 0.551781 0.748089 
336 2 13 0.375811 0.546249 0.759611 
337 2 13 0.363068 0.541889 0.73559 
338 2 13 0.371461 0.566091 0.742131 
339 1 14 0.501643 0.484308 0.255297 
340 2 14 0.50362 0.501018 0.255012 
341 2 14 0.488028 0.482574 0.265189 
342 2 14 0.513943 0.478148 0.264947 
343 1 14 0.50158 0.474191 0.234571 
344 2 14 0.501868 0.457265 0.237127 
345 1 14 0.479918 0.479213 0.223982 
346 2 14 0.479224 0.471137 0.20863 
347 2 14 0.480318 0.496228 0.220914 
348 1 14 0.458627 0.475414 0.235336 
349 2 14 0.45914 0.48552 0.248338 
350 2 14 0.458038 0.461122 0.243219 
351 1 14 0.440652 0.479114 0.220467 
352 2 14 0.443333 0.494245 0.213285 
353 1 14 0.436712 0.462993 0.20207 
354 2 14 0.427879 0.470946 0.190357 
355 2 14 0.451022 0.457712 0.1943 
356 2 14 0.42853 0.449775 0.209153 
357 1 14 0.519881 0.478789 0.220688 
358 2 14 0.51759 0.475615 0.204524 
359 2 14 0.524902 0.495028 0.219873 
360 2 14 0.533882 0.470049 0.2249 
361 1 14 0.420398 0.4839 0.23295 
362 2 14 0.415413 0.472501 0.243706 
363 2 14 0.421776 0.498174 0.243413 
364 2 14 0.40804 0.486535 0.221984 
365 1 15 0.367756 0.192039 0.900914 
366 2 15 0.359203 0.19806 0.914489 
367 2 15 0.375322 0.177763 0.904655 
368 2 15 0.376994 0.204734 0.896159 
369 1 15 0.352267 0.187768 0.883969 
370 2 15 0.342397 0.201887 0.882539 
371 1 15 0.363631 0.180224 0.86349 
372 2 15 0.351006 0.175053 0.853262 
373 2 15 0.375471 0.167922 0.863916 
374 1 15 0.376041 0.197961 0.853899 
375 2 15 0.391807 0.197401 0.860193 
376 2 15 0.367616 0.21215 0.857784 
377 1 15 0.377633 0.193926 0.829971 
378 2 15 0.384441 0.178664 0.827398 
379 1 15 0.357431 0.196188 0.818938 
380 2 15 0.347007 0.207045 0.826309 
381 2 15 0.359126 0.204469 0.804459 
382 2 15 0.347615 0.181606 0.817074 
383 1 15 0.337046 0.171307 0.890208 
384 2 15 0.342919 0.155216 0.88788 
385 2 15 0.330705 0.174932 0.904453 
386 2 15 0.324284 0.171697 0.878138 
387 1 15 0.39323 0.208485 0.819191 
388 2 15 0.386546 0.223595 0.818959 
389 2 15 0.407594 0.212071 0.827115 
390 2 15 0.396775 0.204633 0.803232 
391 1 16 0.79212 0.78124 0.888144 
392 2 16 0.79239 0.79213 0.89934 
393 2 16 0.805526 0.78499 0.878527 
394 2 16 0.777727 0.78618 0.882545 
395 1 16 0.79073 0.75862 0.893829 
396 2 16 0.77427 0.756209 0.899996 
397 1 16 0.793047 0.742952 0.874551 
398 2 16 0.793753 0.726837 0.880729 
399 2 16 0.807196 0.744879 0.866493 
400 1 16 0.775585 0.746075 0.859806 
401 2 16 0.781233 0.759525 0.850543 
402 2 16 0.761906 0.748771 0.870399 
403 1 16 0.771443 0.727888 0.84503 
404 2 16 0.785971 0.722993 0.83837 
405 1 16 0.761388 0.708341 0.855489 
406 2 16 0.766396 0.704453 0.871163 
407 2 16 0.744404 0.710231 0.855208 
408 2 16 0.764261 0.694337 0.846546 
409 1 16 0.804785 0.752683 0.911385 
410 2 16 0.801387 0.762609 0.924387 
411 2 16 0.803762 0.736898 0.915738 
412 2 16 0.820976 0.755761 0.907715 
413 1 16 0.759096 0.736047 0.825502 
414 2 16 0.770167 0.745877 0.81788 
415 2 16 0.757457 0.724577 0.814336 
416 2 16 0.744679 0.743725 0.830392 
417 1 17 0.686059 0.549217 0.608161 
418 2 17 0.682265 0.566037 0.605064 
419 2 17 0.695024 0.548501 0.62183 
420 2 17 0.695612 0.543017 0.596416 
421 1 17 0.667422 0.534552 0.609673 
422 2 17 0.661375 0.536064 0.594714 
423 1 17 0.674897 0.511526 0.611861 
424 2 17 0.661469 0.503067 0.618075 
425 2 17 0.688029 0.509816 0.621508 
426 1 17 0.679896 0.499951 0.591112 
427 2 17 0.694811 0.505715 0.586537 
428 2 17 0.669866 0.505479 0.579199 
429 1 17 0.682621 0.475914 0.593792 
430 2 17 0.688934 0.47329 0.608936 
431 1 17 0.661904 0.46549 0.595345 
432 2 17 0.663247 0.44932 0.602647 
433 2 17 0.65173 0.471447 0.608859 
434 2 17 0.65565 0.464544 0.579998 
435 1 17 0.652374 0.542558 0.62652 
436 2 17 0.637194 0.535751 0.62946 
437 2 17 0.660016 0.541195 0.641646 
438 2 17 0.649324 0.557556 0.620773 
439 1 17 0.696826 0.466446 0.577802 
440 2 17 0.696281 0.450378 0.575955 
441 2 17 0.691399 0.472773 0.563686 
442 2 17 0.713145 0.471745 0.580121 
443 1 18 0.428316 0.412647 0.775498 
444 2 18 0.420425 0.403324 0.787649 
445 2 18 0.418538 0.426827 0.774737 
446 2 18 0.427951 0.402822 0.762167 
447 1 18 0.451713 0.415911 0.780712 
448 2 18 0.451533 0.424079 0.795878 
449 1 18 0.463539 0.396447 0.785562 
450 2 18 0.479896 0.400829 0.785032 
451 2 18 0.46312 0.386381 0.771135 
452 1 18 0.456878 0.384809 0.805065 
453 2 18 0.440983 0.380617 0.803577 
454 2 18 0.456649 0.395468 0.817766 
455 1 18 0.470295 0.367097 0.812076 
456 2 18 0.472169 0.356784 0.799569 
457 1 18 0.49204 0.373179 0.820167 
458 2 18 0.500358 0.359751 0.825666 
459 2 18 0.502208 0.376574 0.807008 
460 2 18 0.493012 0.385652 0.831529 
461 1 18 0.462209 0.428874 0.763608 
462 2 18 0.462427 0.418659 0.749736 
463 2 18 0.452373 0.442374 0.759401 
464 2 18 0.47762 0.434388 0.768385 
465 1 18 0.459904 0.355448 0.830467 
466 2 18 0.445307 0.349312 0.825169 
467 2 18 0.4693 0.342095 0.835339 
468 2 18 0.455757 0.365515 0.84448 
469 1 19 0.194106 0.739825 0.859072 
470 2 19 0.188205 0.746638 0.873309 
471 2 19 0.190202 0.752019 0.847409 
472 2 19 0.185811 0.725188 0.854911 
473 1 19 0.217557 0.735195 0.859103 
474 2 19 0.222538 0.730754 0.874396 
475 1 19 0.22122 0.716287 0.845232 
476 2 19 0.234472 0.717693 0.835155 
477 2 19 0.208883 0.714177 0.833443 
478 1 19 0.223465 0.695768 0.85813 
479 2 19 0.211866 0.69657 0.870405 
480 2 19 0.23825 0.695621 0.866152 
481 1 19 0.22119 0.675003 0.846504 
482 2 19 0.204527 0.672165 0.845205 
483 1 19 0.226694 0.67568 0.822812 
484 2 19 0.241492 0.684252 0.820021 
485 2 19 0.228827 0.660283 0.817146 
486 2 19 0.214645 0.682608 0.813688 
487 1 19 0.229763 0.754178 0.851635 
488 2 19 0.246516 0.751677 0.84991 
489 2 19 0.224006 0.759751 0.836997 
490 2 19 0.228831 0.768147 0.861921 
491 1 19 0.233327 0.656434 0.857639 
492 2 19 0.230551 0.642223 0.849961 
493 2 19 0.249999 0.658263 0.857674 
494 2 19 0.227824 0.655922 0.87389 
495 1 20 0.622702 0.404166 0.452778 
496 2 20 0.630097 0.40329 0.438737 
497 2 20 0.633097 0.413951 0.462155 
498 2 20 0.623233 0.388585 0.460109 
499 1 20 0.600708 0.413164 0.450468 
500 2 20 0.590649 0.402984 0.441356 
501 1 20 0.591294 0.418306 0.472271 
502 2 20 0.576923 0.427066 0.468854 
503 2 20 0.599584 0.429958 0.480181 
504 1 20 0.586948 0.397932 0.484631 
505 2 20 0.601826 0.391146 0.486646 
506 2 20 0.575871 0.387974 0.475961 
507 1 20 0.580147 0.401771 0.507582 
508 2 20 0.586543 0.415503 0.513581 
509 1 20 0.555968 0.40042 0.509286 
510 2 20 0.550928 0.3852 0.504238 
511 2 20 0.553804 0.402774 0.525324 
512 2 20 0.54647 0.412607 0.50213 
513 1 20 0.600898 0.432817 0.436546 
514 2 20 0.609384 0.445337 0.443586 
515 2 20 0.606643 0.429386 0.421273 
516 2 20 0.585452 0.438891 0.434706 
517 1 20 0.587155 0.383703 0.522238 
518 2 20 0.604472 0.385763 0.525339 
519 2 20 0.579372 0.38425 0.537336 
520 2 20 0.583698 0.369391 0.515239 
521 1 21 0.320933 0.0801601 0.0349596 
522 2 21 0.307585 0.0706399 0.0286801 
523 2 21 0.322298 0.0918699 0.0229335 
524 2 21 0.333811 0.0699865 0.036464 
525 1 21 0.315196 0.090154 0.055541 
526 2 21 0.307427 0.0784452 0.0650019 
527 1 21 0.335182 0.0985289 0.0655203 
528 2 21 0.340769 0.110289 0.0556118 
529 2 21 0.348473 0.088329 0.065431 
530 1 21 0.333165 0.104857 0.0876906 
531 2 21 0.328607 0.0903153 0.095879 
532 2 21 0.320519 0.114824 0.0909812 
533 1 21 0.351475 0.116186 0.0982397 
534 2 21 0.367141 0.107659 0.100439 
535 1 21 0.355192 0.137081 0.0875652 
536 2 21 0.369173 0.144841 0.0931723 
537 2 21 0.359559 0.134063 0.0710427 
538 2 21 0.342565 0.147318 0.0891263 
539 1 21 0.298348 0.107317 0.0528714 
540 2 21 0.302007 0.116437 0.0404126 
541 2 21 0.282413 0.101456 0.0507119 
542 2 21 0.298454 0.117806 0.065498 
543 1 21 0.346668 0.120664 0.120875 
544 2 21 0.341878 0.106164 0.128465 
545 2 21 0.36096 0.126688 0.126865 
546 2 21 0.33422 0.132494 0.12207 
547 1 22 0.3002 0.459005 0.443705 
548 2 22 0.284388 0.452274 0.446793 
549 2 22 0.296835 0.472887 0.434853 
550 2 22 0.309626 0.449641 0.433692 
551 1 22 0.310085 0.461445 0.464887 
552 2 22 0.300832 0.470569 0.475667 
553 1 22 0.310234 0.440749 0.475688 
554 2 22 0.322538 0.433135 0.466796 
555 2 22 0.294763 0.433212 0.474477 
556 1 22 0.316707 0.440448 0.498748 
557 2 22 0.305939 0.448725 0.508117 
558 2 22 0.33133 0.44983 0.499326 
559 1 22 0.319492 0.41815 0.507257 
560 2 22 0.327458 0.418214 0.521119 
561 1 22 0.299558 0.406612 0.509613 
562 2 22 0.287653 0.412853 0.520596 
563 2 22 0.291981 0.404829 0.493968 
564 2 22 0.303345 0.390704 0.51445 
565 1 22 0.332058 0.470386 0.463564 
566 2 22 0.334482 0.480105 0.450002 
567 2 22 0.334732 0.479705 0.477376 
568 2 22 0.34476 0.460854 0.460815 
569 1 22 0.333936 0.403002 0.495933 
570 2 22 0.348935 0.409237 0.49488 
571 2 22 0.336281 0.389821 0.505713 
572 2 22 0.330903 0.400224 0.479015 
573 1 23 0.487533 0.543012 0.838291 
574 2 23 0.492386 0.54489 0.854415 
575 2 23 0.474195 0.553886 0.838311 
576 2 23 0.482115 0.527408 0.835212 
577 1 23 0.502254 0.547705 0.820591 
578 2 23 0.514925 0.53703 0.820457 
579 1 23 0.491712 0.542831 0.799037 
580 2 23 0.476848 0.549489 0.796662 
581 2 23 0.489662 0.524773 0.798488 
582 1 23 0.503572 0.550345 0.779988 
583 2 23 0.520466 0.54619 0.778186 
584 2 23 0.504409 0.566075 0.782919 
585 1 23 0.493462 0.548412 0.75839 
586 2 23 0.477242 0.552597 0.760517 
587 1 23 0.501855 0.563673 0.742819 
588 2 23 0.493364 0.578354 0.742691 
589 2 23 0.518281 0.569288 0.744904 
590 2 23 0.499922 0.557534 0.726794 
591 1 23 0.511011 0.56981 0.823353 
592 2 23 0.523347 0.574955 0.812302 
593 2 23 0.498198 0.581172 0.82187 
594 2 23 0.519374 0.570832 0.838308 
595 1 23 0.495802 0.525226 0.750021 
596 2 23 0.483207 0.515956 0.756192 
597 2 23 0.495132 0.524063 0.733131 
598 2 23 0.51039 0.518471 0.754439 
599 1 24 0.439129 0.93986 0.850429 
600 2 24 0.438485 0.937885 0.86735 
601 2 24 0.437176 0.954915 0.84462 
602 2 24 0.424898 0.932515 0.84515 
603 1 24 0.458029 0.928332 0.842741 
604 2 24 0.452709 0.924485 0.82704 
605 1 24 0.477403 0.940774 0.843992 
606 2 24 0.479511 0.94765 0.859914 
607 2 24 0.474261 0.956666 0.836872 
608 1 24 0.49773 0.9328 0.835634 
609 2 24 0.492216 0.924192 0.822092 
610 2 24 0.50305 0.919649 0.843426 
611 1 24 0.515977 0.947229 0.831727 
612 2 24 0.526068 0.936943 0.824581 
613 1 24 0.510916 0.964798 0.817483 
614 2 24 0.497041 0.973714 0.820883 
615 2 24 0.524979 0.974522 0.813166 
616 2 24 0.507704 0.957005 0.802311 
617 1 24 0.461148 0.908722 0.855951 
618 2 24 0.473888 0.899031 0.851434 
619 2 24 0.465356 0.91612 0.87022 
620 2 24 0.447098 0.898837 0.857563 
621 1 24 0.526599 0.953768 0.851559 
622 2 24 0.541286 0.961271 0.849326 
623 2 24 0.517027 0.963011 0.861282 
624 2 24 0.530027 0.940406 0.860987 
625 1 25 0.189012 0.640624 0.981323 
626 2 25 0.204184 0.63697 0.988367 
627 2 25 0.192065 0.640511 0.965072 
628 2 25 0.184488 0.656548 0.983721 
629 1 25 0.172593 0.624493 0.986823 
630 2 25 0.170858 0.614995 0.972584 
631 1 25 0.17793 0.608341 0.00402405 
632 2 25 0.163886 0.599847 0.00720316 
633 2 25 0.182769 0.61648 0.0179372 
634 1 25 0.194851 0.59273 0.99944 
635 2 25 0.208251 0.602367 0.996786 
636 2 25 0.193007 0.585682 0.984601 
637 1 25 0.198397 0.57527 0.0171261 
638 2 25 0.183634 0.566626 0.0165937 
639 1 25 0.215854 0.559689 0.010484 
640 2 25 0.209471 0.544616 0.00998853 
641 2 25 0.22214 0.563072 0.994753 
642 2 25 0.228527 0.558534 0.0216858 
643 1 25 0.151699 0.634171 0.992991 
644 2 25 0.15205 0.642485 0.00750427 
645 2 25 0.146655 0.645363 0.980485 
646 2 25 0.139746 0.623354 0.995717 
647 1 25 0.202039 0.586118 0.0389143 
648 2 25 0.188025 0.590456 0.0460387 
649 2 25 0.208648 0.575347 0.0490719 
650 2 25 0.213968 0.598306 0.0368965 
651 1 26 0.830856 0.450293 0.643689 
652 2 26 0.840582 0.450672 0.656654 
653 2 26 0.841445 0.450923 0.63161 
654 2 26 0.821248 0.464603 0.644278 
655 1 26 0.818501 0.429916 0.640502 
656 2 26 0.807725 0.43321 0.628469 
657 1 26 0.832066 0.411071 0.636817 
658 2 26 0.840463 0.40866 0.649685 
659 2 26 0.843971 0.416698 0.626305 
660 1 26 0.822405 0.391199 0.627074 
661 2 26 0.812489 0.393884 0.613912 
662 2 26 0.813384 0.382871 0.637515 
663 1 26 0.838711 0.375071 0.622783 
664 2 26 0.830594 0.361069 0.620847 
665 1 26 0.849957 0.3794 0.601378 
666 2 26 0.856088 0.364534 0.595025 
667 2 26 0.838667 0.384036 0.589802 
668 2 26 0.862105 0.390429 0.601873 
669 1 26 0.804012 0.426872 0.658594 
670 2 26 0.814717 0.419856 0.66986 
671 2 26 0.794214 0.439288 0.664236 
672 2 26 0.792587 0.414335 0.656606 
673 1 26 0.852449 0.369236 0.641909 
674 2 26 0.842532 0.36717 0.655968 
675 2 26 0.863001 0.355655 0.642308 
676 2 26 0.862935 0.381691 0.645426 
677 1 27 0.897016 0.882093 0.718346 
678 2 27 0.882025 0.890685 0.716107 
679 2 27 0.906256 0.889392 0.730481 
680 2 27 0.907176 0.88377 0.704351 
681 1 27 0.892752 0.858182 0.721331 
682 2 27 0.907931 0.850082 0.721388 
683 1 27 0.881735 0.854723 0.742213 
684 2 27 0.873964 0.838829 0.741379 
685 2 27 0.870707 0.86754 0.745054 
686 1 27 0.898535 0.853628 0.760628 
687 2 27 0.909124 0.866837 0.759819 
688 2 27 0.909911 0.841508 0.756856 
689 1 27 0.89064 0.849667 0.783335 
690 2 27 0.877325 0.841087 0.783717 
691 1 27 0.907115 0.838833 0.795676 
692 2 27 0.921256 0.846205 0.796085 
693 2 27 0.903434 0.834796 0.811111 
694 2 27 0.910795 0.822228 0.790131 
695 1 27 0.881016 0.848161 0.704129 
696 2 27 0.881597 0.83059 0.706158 
697 2 27 0.865933 0.852587 0.70466 
698 2 27 0.888572 0.849941 0.689687 
699 1 27 0.88397 0.869612 0.793611 
700 2 27 0.878348 0.867563 0.809908 
701 2 27 0.896383 0.880827 0.79119 
702 2 27 0.871958 0.876608 0.784198 
703 1 28 0.00146463 0.474279 0.117226 
704 2 28 0.0176307 0.476773 0.121826 
705 2 28 0.998108 0.488121 0.108284 
706 2 28 0.991214 0.476954 0.130273 
707 1 28 1.00184 0.454633 0.104334 
708 2 28 0.98569 0.453833 0.0994469 
709 1 28 0.0148506 0.456663 0.0843525 
710 2 28 0.0311367 0.457226 0.0890106 
711 2 28 0.0130219 0.472047 0.0770222 
712 1 28 0.0125419 0.441552 0.0673557 
713 2 28 0.99673 0.440954 0.0617944 
714 2 28 0.0153434 0.42579 0.0736328 
715 1 28 0.0264226 0.445633 0.0485745 
716 2 28 0.0422325 0.442615 0.0517252 
717 1 28 0.0208575 0.429096 0.0324266 
718 2 28 0.0319415 0.431161 0.0207635 
719 2 28 0.0227831 0.41392 0.0397526 
720 2 28 0.0060288 0.430729 0.024908 
721 1 28 0.00522919 0.434947 0.117169 
722 2 28 0.00595721 0.421589 0.10617 
723 2 28 0.0207714 0.435443 0.123547 
724 2 28 0.99559 0.433381 0.129716 
725 1 28 0.0264971 0.467816 0.040326 
726 2 28 0.0323843 0.470013 0.0249615 
727 2 28 0.0105038 0.474159 0.040743 
728 2 28 0.0373285 0.477263 0.0498937 
729 1 29 0.658901 0.120845 0.757825 
730 2 29 0.652624 0.115725 0.77182 
731 2 29 0.674763 0.125298 0.762367 
732 2 29 0.652375 0.135724 0.755105 
733 1 29 0.657609 0.105651 0.740496 
734 2 29 0.666738 0.111889 0.72837 
735 1 29 0.666713 0.0849027 0.746457 
736 2 29 0.660416 0.0726296 0.73631 
737 2 29 0.663644 0.0781817 0.761472 
738 1 29 0.690199 0.0844585 0.743242 
739 2 29 0.695198 0.0972433 0.751819 
740 2 29 0.693194 0.0867547 0.726923 
741 1 29 0.700248 0.0628863 0.750962 
742 2 29 0.691853 0.057836 0.764998 
743 1 29 0.695677 0.0447804 0.73689 
744 2 29 0.700858 0.0298057 0.741457 
745 2 29 0.679429 0.041274 0.735453 
746 2 29 0.703249 0.0482439 0.722181 
747 1 29 0.635346 0.104701 0.734156 
748 2 29 0.630156 0.119606 0.732393 
749 2 29 0.633155 0.0946569 0.721072 
750 2 29 0.625325 0.0980541 0.745458 
751 1 29 0.723151 0.0662575 0.756437 
752 2 29 0.73168 0.0745751 0.744574 
753 2 29 0.725412 0.0759536 0.769647 
754 2 29 0.731672 0.0521645 0.759617 
755 1 30 0.60889 0.840085 0.493687 
756 2 30 0.615933 0.854372 0.497924 
757 2 30 0.617554 0.827226 0.498082 
758 2 30 0.608361 0.840386 0.476739 
759 1 30 0.585276 0.838929 0.501053 
760 2 30 0.587095 0.841943 0.51734 
761 1 30 0.573826 0.858273 0.493358 
762 2 30 0.557008 0.854573 0.494991 
763 2 30 0.577146 0.860225 0.476146 
764 1 30 0.578192 0.879252 0.502513 
765 2 30 0.593928 0.882676 0.49702 
766 2 30 0.57628 0.877953 0.519738 
767 1 30 0.56261 0.897169 0.496013 
768 2 30 0.565344 0.89834 0.479319 
769 1 30 0.539376 0.892233 0.497038 
770 2 30 0.528833 0.905087 0.496755 
771 2 30 0.535123 0.881535 0.485438 
772 2 30 0.535913 0.885334 0.51232 
773 1 30 0.576328 0.817165 0.494067 
774 2 30 0.562249 0.812602 0.50257 
775 2 30 0.574601 0.816126 0.47684 
776 2 30 0.586149 0.804386 0.499458 
777 1 30 0.567757 0.917484 0.5071 
778 2 30 0.558931 0.93082 0.500722 
779 2 30 0.563959 0.917713 0.523515 
780 2 30 0.584321 0.918877 0.505068 
781 1 31 0.843707 0.630774 0.227202 
782 2 31 0.838383 0.615004 0.229804 
783 2 31 0.831962 0.642659 0.231056 
784 2 31 0.847474 0.631714 0.211439 
785 1 31 0.863073 0.637256 0.240566 
786 2 31 0.876164 0.626499 0.238246 
787 1 31 0.870045 0.65983 0.237561 
788 2 31 0.882631 0.664171 0.249411 
789 2 31 0.854441 0.667871 0.241317 
790 1 31 0.876784 0.662985 0.214701 
791 2 31 0.866449 0.657058 0.20319 
792 2 31 0.890356 0.653404 0.211468 
793 1 31 0.879997 0.685655 0.21036 
794 2 31 0.890596 0.692503 0.222093 
795 1 31 0.892417 0.690116 0.190212 
796 2 31 0.908541 0.683118 0.1896 
797 2 31 0.884049 0.68463 0.176956 
798 2 31 0.894419 0.706578 0.188982 
799 1 31 0.85507 0.633763 0.263651 
800 2 31 0.841104 0.641784 0.268048 
801 2 31 0.854259 0.617755 0.267273 
802 2 31 0.867362 0.637472 0.275227 
803 1 31 0.85911 0.697817 0.210031 
804 2 31 0.861428 0.713946 0.205504 
805 2 31 0.847685 0.691147 0.199827 
806 2 31 0.852075 0.700022 0.225674 
807 1 32 0.158382 0.964376 0.808157 
808 2 32 0.154379 0.956784 0.824114 
809 2 32 0.16402 0.951382 0.79808 
810 2 32 0.172634 0.973306 0.807998 
811 1 32 0.140789 0.976823 0.80073 
812 2 32 0.136605 0.988032 0.812466 
813 1 32 0.147047 0.985256 0.78034 
814 2 32 0.13408 0.989639 0.770288 
815 2 32 0.156642 0.973626 0.771789 