LAMMPS Description

     20000  atoms
     19000  bonds
     36000  angles
     45000  dihedrals
     0  impropers

     2  atom types
     2  bond types
     3  angle types
     3  dihedral types


  0.0 100 xlo xhi
  0.0 100 ylo yhi
  0.0 100 zlo zhi


Masses

       1  1.201100000e+01  # ct
       2  1.007900000e+00  # hc

Pair Coeffs

       1  6.600000000e-02  3.500000000e+00  # ct,ct
       2  3.000000000e-02  2.500000000e+00  # hc,hc

Bond Coeffs

       1  2.680000000e+02  1.529000000e+00  # ct,ct
       2  3.400000000e+02  1.090000000e+00  # ct,hc

Angle Coeffs

       1  5.835000000e+01  1.127000000e+02  # ct,ct,ct
       2  3.750000000e+01  1.107000000e+02  # ct,ct,hc
       3  3.300000000e+01  1.078000000e+02  # hc,ct,hc

Dihedral Coeffs

       1 1.3 -0.05 0.2 0  # ct,ct,ct,ct
       2 0 0 0.3 0  # ct,ct,ct,hc
       3 0 0 0.3 0  # hc,ct,ct,hc


Atoms # full

1 1 1 -0.18 0.0 0.4431163 0.0
2 1 2 0.06 0.0 1.0741603 0.892431
3 1 2 0.06 0.0 1.0741603 -0.892431
4 1 2 0.06 -0.892431 -0.1879277 0.0
5 1 1 -0.06 1.2533223 -0.4431163 5.42660958445e-17
6 1 2 0.06 1.2533223 -1.0741603 -0.892431
7 1 1 -0.06 2.5066446 0.4431163 -1.08532191689e-16
8 1 2 0.06 2.5066446 1.0741603 0.892431
9 1 1 -0.18 3.7599669 -0.4431163 0.0
10 1 2 0.06 3.7599669 -1.0741603 0.892431
11 1 2 0.06 3.7599669 -1.0741603 -0.892431
12 1 2 0.06 4.6523979 0.1879277 0.0
13 1 1 -0.18 1.253322 -0.8862326 1.253322
14 1 2 0.06 0.360891 -1.5172766 1.253322
15 1 2 0.06 2.145753 -1.5172766 1.253322
16 1 2 0.06 1.253322 -0.2551886 2.145753
17 1 1 -0.18 2.506644 0.8862326 -1.253322
18 1 2 0.06 1.614213 1.5172766 -1.253322
19 1 2 0.06 3.399075 1.5172766 -1.253322
20 1 2 0.06 2.506644 0.2551886 -2.145753
21 2 1 -0.18 20.0 0.4431163 0.0
22 2 2 0.06 20.0 1.0741603 0.892431
23 2 2 0.06 20.0 1.0741603 -0.892431
24 2 2 0.06 19.107569 -0.1879277 0.0
25 2 1 -0.06 21.2533223 -0.4431163 5.42660958445e-17
26 2 2 0.06 21.2533223 -1.0741603 -0.892431
27 2 1 -0.06 22.5066446 0.4431163 -1.08532191689e-16
28 2 2 0.06 22.5066446 1.0741603 0.892431
29 2 1 -0.18 23.7599669 -0.4431163 0.0
30 2 2 0.06 23.7599669 -1.0741603 0.892431
31 2 2 0.06 23.7599669 -1.0741603 -0.892431
32 2 2 0.06 24.6523979 0.1879277 0.0
33 2 1 -0.18 21.253322 -0.8862326 1.253322
34 2 2 0.06 20.360891 -1.5172766 1.253322
35 2 2 0.06 22.145753 -1.5172766 1.253322
36 2 2 0.06 21.253322 -0.2551886 2.145753
37 2 1 -0.18 22.506644 0.8862326 -1.253322
38 2 2 0.06 21.614213 1.5172766 -1.253322
39 2 2 0.06 23.399075 1.5172766 -1.253322
40 2 2 0.06 22.506644 0.2551886 -2.145753
41 3 1 -0.18 40.0 0.4431163 0.0
42 3 2 0.06 40.0 1.0741603 0.892431
43 3 2 0.06 40.0 1.0741603 -0.892431
44 3 2 0.06 39.107569 -0.1879277 0.0
45 3 1 -0.06 41.2533223 -0.4431163 5.42660958445e-17
46 3 2 0.06 41.2533223 -1.0741603 -0.892431
47 3 1 -0.06 42.5066446 0.4431163 -1.08532191689e-16
48 3 2 0.06 42.5066446 1.0741603 0.892431
49 3 1 -0.18 43.7599669 -0.4431163 0.0
50 3 2 0.06 43.7599669 -1.0741603 0.892431
51 3 2 0.06 43.7599669 -1.0741603 -0.892431
52 3 2 0.06 44.6523979 0.1879277 0.0
53 3 1 -0.18 41.253322 -0.8862326 1.253322
54 3 2 0.06 40.360891 -1.5172766 1.253322
55 3 2 0.06 42.145753 -1.5172766 1.253322
56 3 2 0.06 41.253322 -0.2551886 2.145753
57 3 1 -0.18 42.506644 0.8862326 -1.253322
58 3 2 0.06 41.614213 1.5172766 -1.253322
59 3 2 0.06 43.399075 1.5172766 -1.253322
60 3 2 0.06 42.506644 0.2551886 -2.145753
61 4 1 -0.18 60.0 0.4431163 0.0
62 4 2 0.06 60.0 1.0741603 0.892431
63 4 2 0.06 60.0 1.0741603 -0.892431
64 4 2 0.06 59.107569 -0.1879277 0.0
65 4 1 -0.06 61.2533223 -0.4431163 5.42660958445e-17
66 4 2 0.06 61.2533223 -1.0741603 -0.892431
67 4 1 -0.06 62.5066446 0.4431163 -1.08532191689e-16
68 4 2 0.06 62.5066446 1.0741603 0.892431
69 4 1 -0.18 63.7599669 -0.4431163 0.0
70 4 2 0.06 63.7599669 -1.0741603 0.892431
71 4 2 0.06 63.7599669 -1.0741603 -0.892431
72 4 2 0.06 64.6523979 0.1879277 0.0
73 4 1 -0.18 61.253322 -0.8862326 1.253322
74 4 2 0.06 60.360891 -1.5172766 1.253322
75 4 2 0.06 62.145753 -1.5172766 1.253322
76 4 2 0.06 61.253322 -0.2551886 2.145753
77 4 1 -0.18 62.506644 0.8862326 -1.253322
78 4 2 0.06 61.614213 1.5172766 -1.253322
79 4 2 0.06 63.399075 1.5172766 -1.253322
80 4 2 0.06 62.506644 0.2551886 -2.145753
81 5 1 -0.18 80.0 0.4431163 0.0
82 5 2 0.06 80.0 1.0741603 0.892431
83 5 2 0.06 80.0 1.0741603 -0.892431
84 5 2 0.06 79.107569 -0.1879277 0.0
85 5 1 -0.06 81.2533223 -0.4431163 5.42660958445e-17
86 5 2 0.06 81.2533223 -1.0741603 -0.892431
87 5 1 -0.06 82.5066446 0.4431163 -1.08532191689e-16
88 5 2 0.06 82.5066446 1.0741603 0.892431
89 5 1 -0.18 83.7599669 -0.4431163 0.0
90 5 2 0.06 83.7599669 -1.0741603 0.892431
91 5 2 0.06 83.7599669 -1.0741603 -0.892431
92 5 2 0.06 84.6523979 0.1879277 0.0
93 5 1 -0.18 81.253322 -0.8862326 1.253322
94 5 2 0.06 80.360891 -1.5172766 1.253322
95 5 2 0.06 82.145753 -1.5172766 1.253322
96 5 2 0.06 81.253322 -0.2551886 2.145753
97 5 1 -0.18 82.506644 0.8862326 -1.253322
98 5 2 0.06 81.614213 1.5172766 -1.253322
99 5 2 0.06 83.399075 1.5172766 -1.253322
100 5 2 0.06 82.506644 0.2551886 -2.145753
101 6 1 -0.18 0.0 10.4431163 0.0
102 6 2 0.06 0.0 11.0741603 0.892431
103 6 2 0.06 0.0 11.0741603 -0.892431
104 6 2 0.06 -0.892431 9.8120723 0.0
105 6 1 -0.06 1.2533223 9.5568837 5.42660958445e-17
106 6 2 0.06 1.2533223 8.9258397 -0.892431
107 6 1 -0.06 2.5066446 10.4431163 -1.08532191689e-16
108 6 2 0.06 2.5066446 11.0741603 0.892431
109 6 1 -0.18 3.7599669 9.5568837 0.0
110 6 2 0.06 3.7599669 8.9258397 0.892431
111 6 2 0.06 3.7599669 8.9258397 -0.892431
112 6 2 0.06 4.6523979 10.1879277 0.0
113 6 1 -0.18 1.253322 9.1137674 1.253322
114 6 2 0.06 0.360891 8.4827234 1.253322
115 6 2 0.06 2.145753 8.4827234 1.253322
116 6 2 0.06 1.253322 9.7448114 2.145753
117 6 1 -0.18 2.506644 10.8862326 -1.253322
118 6 2 0.06 1.614213 11.5172766 -1.253322
119 6 2 0.06 3.399075 11.5172766 -1.253322
120 6 2 0.06 2.506644 10.2551886 -2.145753
121 7 1 -0.18 20.0 10.4431163 0.0
122 7 2 0.06 20.0 11.0741603 0.892431
123 7 2 0.06 20.0 11.0741603 -0.892431
124 7 2 0.06 19.107569 9.8120723 0.0
125 7 1 -0.06 21.2533223 9.5568837 5.42660958445e-17
126 7 2 0.06 21.2533223 8.9258397 -0.892431
127 7 1 -0.06 22.5066446 10.4431163 -1.08532191689e-16
128 7 2 0.06 22.5066446 11.0741603 0.892431
129 7 1 -0.18 23.7599669 9.5568837 0.0
130 7 2 0.06 23.7599669 8.9258397 0.892431
131 7 2 0.06 23.7599669 8.9258397 -0.892431
132 7 2 0.06 24.6523979 10.1879277 0.0
133 7 1 -0.18 21.253322 9.1137674 1.253322
134 7 2 0.06 20.360891 8.4827234 1.253322
135 7 2 0.06 22.145753 8.4827234 1.253322
136 7 2 0.06 21.253322 9.7448114 2.145753
137 7 1 -0.18 22.506644 10.8862326 -1.253322
138 7 2 0.06 21.614213 11.5172766 -1.253322
139 7 2 0.06 23.399075 11.5172766 -1.253322
140 7 2 0.06 22.506644 10.2551886 -2.145753
141 8 1 -0.18 40.0 10.4431163 0.0
142 8 2 0.06 40.0 11.0741603 0.892431
143 8 2 0.06 40.0 11.0741603 -0.892431
144 8 2 0.06 39.107569 9.8120723 0.0
145 8 1 -0.06 41.2533223 9.5568837 5.42660958445e-17
146 8 2 0.06 41.2533223 8.9258397 -0.892431
147 8 1 -0.06 42.5066446 10.4431163 -1.08532191689e-16
148 8 2 0.06 42.5066446 11.0741603 0.892431
149 8 1 -0.18 43.7599669 9.5568837 0.0
150 8 2 0.06 43.7599669 8.9258397 0.892431
151 8 2 0.06 43.7599669 8.9258397 -0.892431
152 8 2 0.06 44.6523979 10.1879277 0.0
153 8 1 -0.18 41.253322 9.1137674 1.253322
154 8 2 0.06 40.360891 8.4827234 1.253322
155 8 2 0.06 42.145753 8.4827234 1.253322
156 8 2 0.06 41.253322 9.7448114 2.145753
157 8 1 -0.18 42.506644 10.8862326 -1.253322
158 8 2 0.06 41.614213 11.5172766 -1.253322
159 8 2 0.06 43.399075 11.5172766 -1.253322
160 8 2 0.06 42.506644 10.2551886 -2.145753
161 9 1 -0.18 60.0 10.4431163 0.0
162 9 2 0.06 60.0 11.0741603 0.892431
163 9 2 0.06 60.0 11.0741603 -0.892431
164 9 2 0.06 59.107569 9.8120723 0.0
165 9 1 -0.06 61.2533223 9.5568837 5.42660958445e-17
166 9 2 0.06 61.2533223 8.9258397 -0.892431
167 9 1 -0.06 62.5066446 10.4431163 -1.08532191689e-16
168 9 2 0.06 62.5066446 11.0741603 0.892431
169 9 1 -0.18 63.7599669 9.5568837 0.0
170 9 2 0.06 63.7599669 8.9258397 0.892431
171 9 2 0.06 63.7599669 8.9258397 -0.892431
172 9 2 0.06 64.6523979 10.1879277 0.0
173 9 1 -0.18 61.253322 9.1137674 1.253322
174 9 2 0.06 60.360891 8.4827234 1.253322
175 9 2 0.06 62.145753 8.4827234 1.253322
176 9 2 0.06 61.253322 9.7448114 2.145753
177 9 1 -0.18 62.506644 10.8862326 -1.253322
178 9 2 0.06 61.614213 11.5172766 -1.253322
179 9 2 0.06 63.399075 11.5172766 -1.253322
180 9 2 0.06 62.506644 10.2551886 -2.145753
181 10 1 -0.18 80.0 10.4431163 0.0
182 10 2 0.06 80.0 11.0741603 0.892431
183 10 2 0.06 80.0 11.0741603 -0.892431
184 10 2 0.06 79.107569 9.8120723 0.0
185 10 1 -0.06 81.2533223 9.5568837 5.42660958445e-17
186 10 2 0.06 81.2533223 8.9258397 -0.892431
187 10 1 -0.06 82.5066446 10.4431163 -1.08532191689e-16
188 10 2 0.06 82.5066446 11.0741603 0.892431
189 10 1 -0.18 83.7599669 9.5568837 0.0
190 10 2 0.06 83.7599669 8.9258397 0.892431
191 10 2 0.06 83.7599669 8.9258397 -0.892431
192 10 2 0.06 84.6523979 10.1879277 0.0
193 10 1 -0.18 81.253322 9.1137674 1.253322
194 10 2 0.06 80.360891 8.4827234 1.253322
195 10 2 0.06 82.145753 8.4827234 1.253322
196 10 2 0.06 81.253322 9.7448114 2.145753
197 10 1 -0.18 82.506644 10.8862326 -1.253322
198 10 2 0.06 81.614213 11.5172766 -1.253322
199 10 2 0.06 83.399075 11.5172766 -1.253322
200 10 2 0.06 82.506644 10.2551886 -2.145753
201 11 1 -0.18 0.0 20.4431163 0.0
202 11 2 0.06 0.0 21.0741603 0.892431
203 11 2 0.06 0.0 21.0741603 -0.892431
204 11 2 0.06 -0.892431 19.8120723 0.0
205 11 1 -0.06 1.2533223 19.5568837 5.42660958445e-17
206 11 2 0.06 1.2533223 18.9258397 -0.892431
207 11 1 -0.06 2.5066446 20.4431163 -1.08532191689e-16
208 11 2 0.06 2.5066446 21.0741603 0.892431
209 11 1 -0.18 3.7599669 19.5568837 0.0
210 11 2 0.06 3.7599669 18.9258397 0.892431
211 11 2 0.06 3.7599669 18.9258397 -0.892431
212 11 2 0.06 4.6523979 20.1879277 0.0
213 11 1 -0.18 1.253322 19.1137674 1.253322
214 11 2 0.06 0.360891 18.4827234 1.253322
215 11 2 0.06 2.145753 18.4827234 1.253322
216 11 2 0.06 1.253322 19.7448114 2.145753
217 11 1 -0.18 2.506644 20.8862326 -1.253322
218 11 2 0.06 1.614213 21.5172766 -1.253322
219 11 2 0.06 3.399075 21.5172766 -1.253322
220 11 2 0.06 2.506644 20.2551886 -2.145753
221 12 1 -0.18 20.0 20.4431163 0.0
222 12 2 0.06 20.0 21.0741603 0.892431
223 12 2 0.06 20.0 21.0741603 -0.892431
224 12 2 0.06 19.107569 19.8120723 0.0
225 12 1 -0.06 21.2533223 19.5568837 5.42660958445e-17
226 12 2 0.06 21.2533223 18.9258397 -0.892431
227 12 1 -0.06 22.5066446 20.4431163 -1.08532191689e-16
228 12 2 0.06 22.5066446 21.0741603 0.892431
229 12 1 -0.18 23.7599669 19.5568837 0.0
230 12 2 0.06 23.7599669 18.9258397 0.892431
231 12 2 0.06 23.7599669 18.9258397 -0.892431
232 12 2 0.06 24.6523979 20.1879277 0.0
233 12 1 -0.18 21.253322 19.1137674 1.253322
234 12 2 0.06 20.360891 18.4827234 1.253322
235 12 2 0.06 22.145753 18.4827234 1.253322
236 12 2 0.06 21.253322 19.7448114 2.145753
237 12 1 -0.18 22.506644 20.8862326 -1.253322
238 12 2 0.06 21.614213 21.5172766 -1.253322
239 12 2 0.06 23.399075 21.5172766 -1.253322
240 12 2 0.06 22.506644 20.2551886 -2.145753
241 13 1 -0.18 40.0 20.4431163 0.0
242 13 2 0.06 40.0 21.0741603 0.892431
243 13 2 0.06 40.0 21.0741603 -0.892431
244 13 2 0.06 39.107569 19.8120723 0.0
245 13 1 -0.06 41.2533223 19.5568837 5.42660958445e-17
246 13 2 0.06 41.2533223 18.9258397 -0.892431
247 13 1 -0.06 42.5066446 20.4431163 -1.08532191689e-16
248 13 2 0.06 42.5066446 21.0741603 0.892431
249 13 1 -0.18 43.7599669 19.5568837 0.0
250 13 2 0.06 43.7599669 18.9258397 0.892431
251 13 2 0.06 43.7599669 18.9258397 -0.892431
252 13 2 0.06 44.6523979 20.1879277 0.0
253 13 1 -0.18 41.253322 19.1137674 1.253322
254 13 2 0.06 40.360891 18.4827234 1.253322
255 13 2 0.06 42.145753 18.4827234 1.253322
256 13 2 0.06 41.253322 19.7448114 2.145753
257 13 1 -0.18 42.506644 20.8862326 -1.253322
258 13 2 0.06 41.614213 21.5172766 -1.253322
259 13 2 0.06 43.399075 21.5172766 -1.253322
260 13 2 0.06 42.506644 20.2551886 -2.145753
261 14 1 -0.18 60.0 20.4431163 0.0
262 14 2 0.06 60.0 21.0741603 0.892431
263 14 2 0.06 60.0 21.0741603 -0.892431
264 14 2 0.06 59.107569 19.8120723 0.0
265 14 1 -0.06 61.2533223 19.5568837 5.42660958445e-17
266 14 2 0.06 61.2533223 18.9258397 -0.892431
267 14 1 -0.06 62.5066446 20.4431163 -1.08532191689e-16
268 14 2 0.06 62.5066446 21.0741603 0.892431
269 14 1 -0.18 63.7599669 19.5568837 0.0
270 14 2 0.06 63.7599669 18.9258397 0.892431
271 14 2 0.06 63.7599669 18.9258397 -0.892431
272 14 2 0.06 64.6523979 20.1879277 0.0
273 14 1 -0.18 61.253322 19.1137674 1.253322
274 14 2 0.06 60.360891 18.4827234 1.253322
275 14 2 0.06 62.145753 18.4827234 1.253322
276 14 2 0.06 61.253322 19.7448114 2.145753
277 14 1 -0.18 62.506644 20.8862326 -1.253322
278 14 2 0.06 61.614213 21.5172766 -1.253322
279 14 2 0.06 63.399075 21.5172766 -1.253322
280 14 2 0.06 62.506644 20.2551886 -2.145753
281 15 1 -0.18 80.0 20.4431163 0.0
282 15 2 0.06 80.0 21.0741603 0.892431
283 15 2 0.06 80.0 21.0741603 -0.892431
284 15 2 0.06 79.107569 19.8120723 0.0
285 15 1 -0.06 81.2533223 19.5568837 5.42660958445e-17
286 15 2 0.06 81.2533223 18.9258397 -0.892431
287 15 1 -0.06 82.5066446 20.4431163 -1.08532191689e-16
288 15 2 0.06 82.5066446 21.0741603 0.892431
289 15 1 -0.18 83.7599669 19.5568837 0.0
290 15 2 0.06 83.7599669 18.9258397 0.892431
291 15 2 0.06 83.7599669 18.9258397 -0.892431
292 15 2 0.06 84.6523979 20.1879277 0.0
293 15 1 -0.18 81.253322 19.1137674 1.253322
294 15 2 0.06 80.360891 18.4827234 1.253322
295 15 2 0.06 82.145753 18.4827234 1.253322
296 15 2 0.06 81.253322 19.7448114 2.145753
297 15 1 -0.18 82.506644 20.8862326 -1.253322
298 15 2 0.06 81.614213 21.5172766 -1.253322
299 15 2 0.06 83.399075 21.5172766 -1.253322
300 15 2 0.06 82.506644 20.2551886 -2.145753
301 16 1 -0.18 0.0 30.4431163 0.0
302 16 2 0.06 0.0 31.0741603 0.892431
303 16 2 0.06 0.0 31.0741603 -0.892431
304 16 2 0.06 -0.892431 29.8120723 0.0
305 16 1 -0.06 1.2533223 29.5568837 5.42660958445e-17
306 16 2 0.06 1.2533223 28.9258397 -0.892431
307 16 1 -0.06 2.5066446 30.4431163 -1.08532191689e-16
308 16 2 0.06 2.5066446 31.0741603 0.892431
309 16 1 -0.18 3.7599669 29.5568837 0.0
310 16 2 0.06 3.7599669 28.9258397 0.892431
311 16 2 0.06 3.7599669 28.9258397 -0.892431
312 16 2 0.06 4.6523979 30.1879277 0.0
313 16 1 -0.18 1.253322 29.1137674 1.253322
314 16 2 0.06 0.360891 28.4827234 1.253322
315 16 2 0.06 2.145753 28.4827234 1.253322
316 16 2 0.06 1.253322 29.7448114 2.145753
317 16 1 -0.18 2.506644 30.8862326 -1.253322
318 16 2 0.06 1.614213 31.5172766 -1.253322
319 16 2 0.06 3.399075 31.5172766 -1.253322
320 16 2 0.06 2.506644 30.2551886 -2.145753
321 17 1 -0.18 20.0 30.4431163 0.0
322 17 2 0.06 20.0 31.0741603 0.892431
323 17 2 0.06 20.0 31.0741603 -0.892431
324 17 2 0.06 19.107569 29.8120723 0.0
325 17 1 -0.06 21.2533223 29.5568837 5.42660958445e-17
326 17 2 0.06 21.2533223 28.9258397 -0.892431
327 17 1 -0.06 22.5066446 30.4431163 -1.08532191689e-16
328 17 2 0.06 22.5066446 31.0741603 0.892431
329 17 1 -0.18 23.7599669 29.5568837 0.0
330 17 2 0.06 23.7599669 28.9258397 0.892431
331 17 2 0.06 23.7599669 28.9258397 -0.892431
332 17 2 0.06 24.6523979 30.1879277 0.0
333 17 1 -0.18 21.253322 29.1137674 1.253322
334 17 2 0.06 20.360891 28.4827234 1.253322
335 17 2 0.06 22.145753 28.4827234 1.253322
336 17 2 0.06 21.253322 29.7448114 2.145753
337 17 1 -0.18 22.506644 30.8862326 -1.253322
338 17 2 0.06 21.614213 31.5172766 -1.253322
339 17 2 0.06 23.399075 31.5172766 -1.253322
340 17 2 0.06 22.506644 30.2551886 -2.145753
341 18 1 -0.18 40.0 30.4431163 0.0
342 18 2 0.06 40.0 31.0741603 0.892431
343 18 2 0.06 40.0 31.0741603 -0.892431
344 18 2 0.06 39.107569 29.8120723 0.0
345 18 1 -0.06 41.2533223 29.5568837 5.42660958445e-17
346 18 2 0.06 41.2533223 28.9258397 -0.892431
347 18 1 -0.06 42.5066446 30.4431163 -1.08532191689e-16
348 18 2 0.06 42.5066446 31.0741603 0.892431
349 18 1 -0.18 43.7599669 29.5568837 0.0
350 18 2 0.06 43.7599669 28.9258397 0.892431
351 18 2 0.06 43.7599669 28.9258397 -0.892431
352 18 2 0.06 44.6523979 30.1879277 0.0
353 18 1 -0.18 41.253322 29.1137674 1.253322
354 18 2 0.06 40.360891 28.4827234 1.253322
355 18 2 0.06 42.145753 28.4827234 1.253322
356 18 2 0.06 41.253322 29.7448114 2.145753
357 18 1 -0.18 42.506644 30.8862326 -1.253322
358 18 2 0.06 41.614213 31.5172766 -1.253322
359 18 2 0.06 43.399075 31.5172766 -1.253322
360 18 2 0.06 42.506644 30.2551886 -2.145753
361 19 1 -0.18 60.0 30.4431163 0.0
362 19 2 0.06 60.0 31.0741603 0.892431
363 19 2 0.06 60.0 31.0741603 -0.892431
364 19 2 0.06 59.107569 29.8120723 0.0
365 19 1 -0.06 61.2533223 29.5568837 5.42660958445e-17
366 19 2 0.06 61.2533223 28.9258397 -0.892431
367 19 1 -0.06 62.5066446 30.4431163 -1.08532191689e-16
368 19 2 0.06 62.5066446 31.0741603 0.892431
369 19 1 -0.18 63.7599669 29.5568837 0.0
370 19 2 0.06 63.7599669 28.9258397 0.892431
371 19 2 0.06 63.7599669 28.9258397 -0.892431
372 19 2 0.06 64.6523979 30.1879277 0.0
373 19 1 -0.18 61.253322 29.1137674 1.253322
374 19 2 0.06 60.360891 28.4827234 1.253322
375 19 2 0.06 62.145753 28.4827234 1.253322
376 19 2 0.06 61.253322 29.7448114 2.145753
377 19 1 -0.18 62.506644 30.8862326 -1.253322
378 19 2 0.06 61.614213 31.5172766 -1.253322
379 19 2 0.06 63.399075 31.5172766 -1.253322
380 19 2 0.06 62.506644 30.2551886 -2.145753
381 20 1 -0.18 80.0 30.4431163 0.0
382 20 2 0.06 80.0 31.0741603 0.892431
383 20 2 0.06 80.0 31.0741603 -0.892431
384 20 2 0.06 79.107569 29.8120723 0.0
385 20 1 -0.06 81.2533223 29.5568837 5.42660958445e-17
386 20 2 0.06 81.2533223 28.9258397 -0.892431
387 20 1 -0.06 82.5066446 30.4431163 -1.08532191689e-16
388 20 2 0.06 82.5066446 31.0741603 0.892431
389 20 1 -0.18 83.7599669 29.5568837 0.0
390 20 2 0.06 83.7599669 28.9258397 0.892431
391 20 2 0.06 83.7599669 28.9258397 -0.892431
392 20 2 0.06 84.6523979 30.1879277 0.0
393 20 1 -0.18 81.253322 29.1137674 1.253322
394 20 2 0.06 80.360891 28.4827234 1.253322
395 20 2 0.06 82.145753 28.4827234 1.253322
396 20 2 0.06 81.253322 29.7448114 2.145753
397 20 1 -0.18 82.506644 30.8862326 -1.253322
398 20 2 0.06 81.614213 31.5172766 -1.253322
399 20 2 0.06 83.399075 31.5172766 -1.253322
400 20 2 0.06 82.506644 30.2551886 -2.145753
401 21 1 -0.18 0.0 40.4431163 0.0
402 21 2 0.06 0.0 41.0741603 0.892431
403 21 2 0.06 0.0 41.0741603 -0.892431
404 21 2 0.06 -0.892431 39.8120723 0.0
405 21 1 -0.06 1.2533223 39.5568837 5.42660958445e-17
406 21 2 0.06 1.2533223 38.9258397 -0.892431
407 21 1 -0.06 2.5066446 40.4431163 -1.08532191689e-16
408 21 2 0.06 2.5066446 41.0741603 0.892431
409 21 1 -0.18 3.7599669 39.5568837 0.0
410 21 2 0.06 3.7599669 38.9258397 0.892431
411 21 2 0.06 3.7599669 38.9258397 -0.892431
412 21 2 0.06 4.6523979 40.1879277 0.0
413 21 1 -0.18 1.253322 39.1137674 1.253322
414 21 2 0.06 0.360891 38.4827234 1.253322
415 21 2 0.06 2.145753 38.4827234 1.253322
416 21 2 0.06 1.253322 39.7448114 2.145753
417 21 1 -0.18 2.506644 40.8862326 -1.253322
418 21 2 0.06 1.614213 41.5172766 -1.253322
419 21 2 0.06 3.399075 41.5172766 -1.253322
420 21 2 0.06 2.506644 40.2551886 -2.145753
421 22 1 -0.18 20.0 40.4431163 0.0
422 22 2 0.06 20.0 41.0741603 0.892431
423 22 2 0.06 20.0 41.0741603 -0.892431
424 22 2 0.06 19.107569 39.8120723 0.0
425 22 1 -0.06 21.2533223 39.5568837 5.42660958445e-17
426 22 2 0.06 21.2533223 38.9258397 -0.892431
427 22 1 -0.06 22.5066446 40.4431163 -1.08532191689e-16
428 22 2 0.06 22.5066446 41.0741603 0.892431
429 22 1 -0.18 23.7599669 39.5568837 0.0
430 22 2 0.06 23.7599669 38.9258397 0.892431
431 22 2 0.06 23.7599669 38.9258397 -0.892431
432 22 2 0.06 24.6523979 40.1879277 0.0
433 22 1 -0.18 21.253322 39.1137674 1.253322
434 22 2 0.06 20.360891 38.4827234 1.253322
435 22 2 0.06 22.145753 38.4827234 1.253322
436 22 2 0.06 21.253322 39.7448114 2.145753
437 22 1 -0.18 22.506644 40.8862326 -1.253322
438 22 2 0.06 21.614213 41.5172766 -1.253322
439 22 2 0.06 23.399075 41.5172766 -1.253322
440 22 2 0.06 22.506644 40.2551886 -2.145753
441 23 1 -0.18 40.0 40.4431163 0.0
442 23 2 0.06 40.0 41.0741603 0.892431
443 23 2 0.06 40.0 41.0741603 -0.892431
444 23 2 0.06 39.107569 39.8120723 0.0
445 23 1 -0.06 41.2533223 39.5568837 5.42660958445e-17
446 23 2 0.06 41.2533223 38.9258397 -0.892431
447 23 1 -0.06 42.5066446 40.4431163 -1.08532191689e-16
448 23 2 0.06 42.5066446 41.0741603 0.892431
449 23 1 -0.18 43.7599669 39.5568837 0.0
450 23 2 0.06 43.7599669 38.9258397 0.892431
451 23 2 0.06 43.7599669 38.9258397 -0.892431
452 23 2 0.06 44.6523979 40.1879277 0.0
453 23 1 -0.18 41.253322 39.1137674 1.253322
454 23 2 0.06 40.360891 38.4827234 1.253322
455 23 2 0.06 42.145753 38.4827234 1.253322
456 23 2 0.06 41.253322 39.7448114 2.145753
457 23 1 -0.18 42.506644 40.8862326 -1.253322
458 23 2 0.06 41.614213 41.5172766 -1.253322
459 23 2 0.06 43.399075 41.5172766 -1.253322
460 23 2 0.06 42.506644 40.2551886 -2.145753
461 24 1 -0.18 60.0 40.4431163 0.0
462 24 2 0.06 60.0 41.0741603 0.892431
463 24 2 0.06 60.0 41.0741603 -0.892431
464 24 2 0.06 59.107569 39.8120723 0.0
465 24 1 -0.06 61.2533223 39.5568837 5.42660958445e-17
466 24 2 0.06 61.2533223 38.9258397 -0.892431
467 24 1 -0.06 62.5066446 40.4431163 -1.08532191689e-16
468 24 2 0.06 62.5066446 41.0741603 0.892431
469 24 1 -0.18 63.7599669 39.5568837 0.0
470 24 2 0.06 63.7599669 38.9258397 0.892431
471 24 2 0.06 63.7599669 38.9258397 -0.892431
472 24 2 0.06 64.6523979 40.1879277 0.0
473 24 1 -0.18 61.253322 39.1137674 1.253322
474 24 2 0.06 60.360891 38.4827234 1.253322
475 24 2 0.06 62.145753 38.4827234 1.253322
476 24 2 0.06 61.253322 39.7448114 2.145753
477 24 1 -0.18 62.506644 40.8862326 -1.253322
478 24 2 0.06 61.614213 41.5172766 -1.253322
479 24 2 0.06 63.399075 41.5172766 -1.253322
480 24 2 0.06 62.506644 40.2551886 -2.145753
481 25 1 -0.18 80.0 40.4431163 0.0
482 25 2 0.06 80.0 41.0741603 0.892431
483 25 2 0.06 80.0 41.0741603 -0.892431
484 25 2 0.06 79.107569 39.8120723 0.0
485 25 1 -0.06 81.2533223 39.5568837 5.42660958445e-17
486 25 2 0.06 81.2533223 38.9258397 -0.892431
487 25 1 -0.06 82.5066446 40.4431163 -1.08532191689e-16
488 25 2 0.06 82.5066446 41.0741603 0.892431
489 25 1 -0.18 83.7599669 39.5568837 0.0
490 25 2 0.06 83.7599669 38.9258397 0.892431
491 25 2 0.06 83.7599669 38.9258397 -0.892431
492 25 2 0.06 84.6523979 40.1879277 0.0
493 25 1 -0.18 81.253322 39.1137674 1.253322
494 25 2 0.06 80.360891 38.4827234 1.253322
495 25 2 0.06 82.145753 38.4827234 1.253322
496 25 2 0.06 81.253322 39.7448114 2.145753
497 25 1 -0.18 82.506644 40.8862326 -1.253322
498 25 2 0.06 81.614213 41.5172766 -1.253322
499 25 2 0.06 83.399075 41.5172766 -1.253322
500 25 2 0.06 82.506644 40.2551886 -2.145753
501 26 1 -0.18 0.0 50.4431163 0.0
502 26 2 0.06 0.0 51.0741603 0.892431
503 26 2 0.06 0.0 51.0741603 -0.892431
504 26 2 0.06 -0.892431 49.8120723 0.0
505 26 1 -0.06 1.2533223 49.5568837 5.42660958445e-17
506 26 2 0.06 1.2533223 48.9258397 -0.892431
507 26 1 -0.06 2.5066446 50.4431163 -1.08532191689e-16
508 26 2 0.06 2.5066446 51.0741603 0.892431
509 26 1 -0.18 3.7599669 49.5568837 0.0
510 26 2 0.06 3.7599669 48.9258397 0.892431
511 26 2 0.06 3.7599669 48.9258397 -0.892431
512 26 2 0.06 4.6523979 50.1879277 0.0
513 26 1 -0.18 1.253322 49.1137674 1.253322
514 26 2 0.06 0.360891 48.4827234 1.253322
515 26 2 0.06 2.145753 48.4827234 1.253322
516 26 2 0.06 1.253322 49.7448114 2.145753
517 26 1 -0.18 2.506644 50.8862326 -1.253322
518 26 2 0.06 1.614213 51.5172766 -1.253322
519 26 2 0.06 3.399075 51.5172766 -1.253322
520 26 2 0.06 2.506644 50.2551886 -2.145753
521 27 1 -0.18 20.0 50.4431163 0.0
522 27 2 0.06 20.0 51.0741603 0.892431
523 27 2 0.06 20.0 51.0741603 -0.892431
524 27 2 0.06 19.107569 49.8120723 0.0
525 27 1 -0.06 21.2533223 49.5568837 5.42660958445e-17
526 27 2 0.06 21.2533223 48.9258397 -0.892431
527 27 1 -0.06 22.5066446 50.4431163 -1.08532191689e-16
528 27 2 0.06 22.5066446 51.0741603 0.892431
529 27 1 -0.18 23.7599669 49.5568837 0.0
530 27 2 0.06 23.7599669 48.9258397 0.892431
531 27 2 0.06 23.7599669 48.9258397 -0.892431
532 27 2 0.06 24.6523979 50.1879277 0.0
533 27 1 -0.18 21.253322 49.1137674 1.253322
534 27 2 0.06 20.360891 48.4827234 1.253322
535 27 2 0.06 22.145753 48.4827234 1.253322
536 27 2 0.06 21.253322 49.7448114 2.145753
537 27 1 -0.18 22.506644 50.8862326 -1.253322
538 27 2 0.06 21.614213 51.5172766 -1.253322
539 27 2 0.06 23.399075 51.5172766 -1.253322
540 27 2 0.06 22.506644 50.2551886 -2.145753
541 28 1 -0.18 40.0 50.4431163 0.0
542 28 2 0.06 40.0 51.0741603 0.892431
543 28 2 0.06 40.0 51.0741603 -0.892431
544 28 2 0.06 39.107569 49.8120723 0.0
545 28 1 -0.06 41.2533223 49.5568837 5.42660958445e-17
546 28 2 0.06 41.2533223 48.9258397 -0.892431
547 28 1 -0.06 42.5066446 50.4431163 -1.08532191689e-16
548 28 2 0.06 42.5066446 51.0741603 0.892431
549 28 1 -0.18 43.7599669 49.5568837 0.0
550 28 2 0.06 43.7599669 48.9258397 0.892431
551 28 2 0.06 43.7599669 48.9258397 -0.892431
552 28 2 0.06 44.6523979 50.1879277 0.0
553 28 1 -0.18 41.253322 49.1137674 1.253322
554 28 2 0.06 40.360891 48.4827234 1.253322
555 28 2 0.06 42.145753 48.4827234 1.253322
556 28 2 0.06 41.253322 49.7448114 2.145753
557 28 1 -0.18 42.506644 50.8862326 -1.253322
558 28 2 0.06 41.614213 51.5172766 -1.253322
559 28 2 0.06 43.399075 51.5172766 -1.253322
560 28 2 0.06 42.506644 50.2551886 -2.145753
561 29 1 -0.18 60.0 50.4431163 0.0
562 29 2 0.06 60.0 51.0741603 0.892431
563 29 2 0.06 60.0 51.0741603 -0.892431
564 29 2 0.06 59.107569 49.8120723 0.0
565 29 1 -0.06 61.2533223 49.5568837 5.42660958445e-17
566 29 2 0.06 61.2533223 48.9258397 -0.892431
567 29 1 -0.06 62.5066446 50.4431163 -1.08532191689e-16
568 29 2 0.06 62.5066446 51.0741603 0.892431
569 29 1 -0.18 63.7599669 49.5568837 0.0
570 29 2 0.06 63.7599669 48.9258397 0.892431
571 29 2 0.06 63.7599669 48.9258397 -0.892431
572 29 2 0.06 64.6523979 50.1879277 0.0
573 29 1 -0.18 61.253322 49.1137674 1.253322
574 29 2 0.06 60.360891 48.4827234 1.253322
575 29 2 0.06 62.145753 48.4827234 1.253322
576 29 2 0.06 61.253322 49.7448114 2.145753
577 29 1 -0.18 62.506644 50.8862326 -1.253322
578 29 2 0.06 61.614213 51.5172766 -1.253322
579 29 2 0.06 63.399075 51.5172766 -1.253322
580 29 2 0.06 62.506644 50.2551886 -2.145753
581 30 1 -0.18 80.0 50.4431163 0.0
582 30 2 0.06 80.0 51.0741603 0.892431
583 30 2 0.06 80.0 51.0741603 -0.892431
584 30 2 0.06 79.107569 49.8120723 0.0
585 30 1 -0.06 81.2533223 49.5568837 5.42660958445e-17
586 30 2 0.06 81.2533223 48.9258397 -0.892431
587 30 1 -0.06 82.5066446 50.4431163 -1.08532191689e-16
588 30 2 0.06 82.5066446 51.0741603 0.892431
589 30 1 -0.18 83.7599669 49.5568837 0.0
590 30 2 0.06 83.7599669 48.9258397 0.892431
591 30 2 0.06 83.7599669 48.9258397 -0.892431
592 30 2 0.06 84.6523979 50.1879277 0.0
593 30 1 -0.18 81.253322 49.1137674 1.253322
594 30 2 0.06 80.360891 48.4827234 1.253322
595 30 2 0.06 82.145753 48.4827234 1.253322
596 30 2 0.06 81.253322 49.7448114 2.145753
597 30 1 -0.18 82.506644 50.8862326 -1.253322
598 30 2 0.06 81.614213 51.5172766 -1.253322
599 30 2 0.06 83.399075 51.5172766 -1.253322
600 30 2 0.06 82.506644 50.2551886 -2.145753
601 31 1 -0.18 0.0 60.4431163 0.0
602 31 2 0.06 0.0 61.0741603 0.892431
603 31 2 0.06 0.0 61.0741603 -0.892431
604 31 2 0.06 -0.892431 59.8120723 0.0
605 31 1 -0.06 1.2533223 59.5568837 5.42660958445e-17
606 31 2 0.06 1.2533223 58.9258397 -0.892431
607 31 1 -0.06 2.5066446 60.4431163 -1.08532191689e-16
608 31 2 0.06 2.5066446 61.0741603 0.892431
609 31 1 -0.18 3.7599669 59.5568837 0.0
610 31 2 0.06 3.7599669 58.9258397 0.892431
611 31 2 0.06 3.7599669 58.9258397 -0.892431
612 31 2 0.06 4.6523979 60.1879277 0.0
613 31 1 -0.18 1.253322 59.1137674 1.253322
614 31 2 0.06 0.360891 58.4827234 1.253322
615 31 2 0.06 2.145753 58.4827234 1.253322
616 31 2 0.06 1.253322 59.7448114 2.145753
617 31 1 -0.18 2.506644 60.8862326 -1.253322
618 31 2 0.06 1.614213 61.5172766 -1.253322
619 31 2 0.06 3.399075 61.5172766 -1.253322
620 31 2 0.06 2.506644 60.2551886 -2.145753
621 32 1 -0.18 20.0 60.4431163 0.0
622 32 2 0.06 20.0 61.0741603 0.892431
623 32 2 0.06 20.0 61.0741603 -0.892431
624 32 2 0.06 19.107569 59.8120723 0.0
625 32 1 -0.06 21.2533223 59.5568837 5.42660958445e-17
626 32 2 0.06 21.2533223 58.9258397 -0.892431
627 32 1 -0.06 22.5066446 60.4431163 -1.08532191689e-16
628 32 2 0.06 22.5066446 61.0741603 0.892431
629 32 1 -0.18 23.7599669 59.5568837 0.0
630 32 2 0.06 23.7599669 58.9258397 0.892431
631 32 2 0.06 23.7599669 58.9258397 -0.892431
632 32 2 0.06 24.6523979 60.1879277 0.0
633 32 1 -0.18 21.253322 59.1137674 1.253322
634 32 2 0.06 20.360891 58.4827234 1.253322
635 32 2 0.06 22.145753 58.4827234 1.253322
636 32 2 0.06 21.253322 59.7448114 2.145753
637 32 1 -0.18 22.506644 60.8862326 -1.253322
638 32 2 0.06 21.614213 61.5172766 -1.253322
639 32 2 0.06 23.399075 61.5172766 -1.253322
640 32 2 0.06 22.506644 60.2551886 -2.145753
641 33 1 -0.18 40.0 60.4431163 0.0
642 33 2 0.06 40.0 61.0741603 0.892431
643 33 2 0.06 40.0 61.0741603 -0.892431
644 33 2 0.06 39.107569 59.8120723 0.0
645 33 1 -0.06 41.2533223 59.5568837 5.42660958445e-17
646 33 2 0.06 41.2533223 58.9258397 -0.892431
647 33 1 -0.06 42.5066446 60.4431163 -1.08532191689e-16
648 33 2 0.06 42.5066446 61.0741603 0.892431
649 33 1 -0.18 43.7599669 59.5568837 0.0
650 33 2 0.06 43.7599669 58.9258397 0.892431
651 33 2 0.06 43.7599669 58.9258397 -0.892431
652 33 2 0.06 44.6523979 60.1879277 0.0
653 33 1 -0.18 41.253322 59.1137674 1.253322
654 33 2 0.06 40.360891 58.4827234 1.253322
655 33 2 0.06 42.145753 58.4827234 1.253322
656 33 2 0.06 41.253322 59.7448114 2.145753
657 33 1 -0.18 42.506644 60.8862326 -1.253322
658 33 2 0.06 41.614213 61.5172766 -1.253322
659 33 2 0.06 43.399075 61.5172766 -1.253322
660 33 2 0.06 42.506644 60.2551886 -2.145753
661 34 1 -0.18 60.0 60.4431163 0.0
662 34 2 0.06 60.0 61.0741603 0.892431
663 34 2 0.06 60.0 61.0741603 -0.892431
664 34 2 0.06 59.107569 59.8120723 0.0
665 34 1 -0.06 61.2533223 59.5568837 5.42660958445e-17
666 34 2 0.06 61.2533223 58.9258397 -0.892431
667 34 1 -0.06 62.5066446 60.4431163 -1.08532191689e-16
668 34 2 0.06 62.5066446 61.0741603 0.892431
669 34 1 -0.18 63.7599669 59.5568837 0.0