ITEM: TIMESTEP
20000000
ITEM: NUMBER OF ATOMS
512
ITEM: BOX BOUNDS pp pp pp
9.0965162081253596e-03 5.7127494483803019e+01
9.0965162081253596e-03 5.7127494483803019e+01
9.0965162081253596e-03 5.7127494483803019e+01
ITEM: ATOMS id type mol xs ys zs 
1 1 1 0.647308 0.761096 0.573673 
2 1 2 0.890806 0.312176 0.17324 
3 1 3 0.491575 0.730954 0.820127 
4 1 4 0.115975 0.637385 0.0962425 
5 1 5 0.898868 0.825271 0.158976 
6 1 6 0.321642 0.799632 0.357676 
7 1 7 0.358766 0.728562 0.736075 
8 1 8 0.0129586 0.972075 0.218238 
9 1 9 0.0226807 0.475609 0.302199 
10 1 10 0.0961383 0.126493 0.792414 
11 1 11 0.347469 0.131413 0.615275 
12 1 12 0.16283 0.841094 0.856133 
13 1 13 0.750321 0.727869 0.827185 
14 1 14 0.640678 0.885374 0.565864 
15 1 15 0.341833 0.201711 0.362447 
16 1 16 0.440027 0.948659 0.755826 
17 1 17 0.922448 0.440298 0.690663 
18 1 18 0.165786 0.486853 0.282584 
19 1 19 0.461499 0.272823 0.174621 
20 1 20 0.183543 0.907487 0.0660693 
21 1 21 0.477566 0.688291 0.703787 
22 1 22 0.762595 0.997459 0.416468 
23 1 23 0.884864 0.266782 0.972562 
24 1 24 0.673826 0.674613 0.725069 
25 1 25 0.634996 0.0675901 0.256571 
26 1 26 0.05169 0.787421 0.527662 
27 1 27 0.812265 0.60857 0.921057 
28 1 28 0.768245 0.153133 0.990952 
29 1 29 0.670566 0.806033 0.372089 
30 1 30 0.249375 0.968413 0.896026 
31 1 31 0.193114 0.189936 0.760299 
32 1 32 0.419444 0.781222 0.479145 
33 1 33 0.850009 0.209776 0.577491 
34 1 34 0.836001 0.494755 0.466383 
35 1 35 0.741526 0.658351 0.046203 
36 1 36 0.0381152 0.240162 0.785123 
37 1 37 0.24907 0.17484 0.118881 
38 1 38 0.100114 0.853304 0.742209 
39 1 39 0.265965 0.0744395 0.374854 
40 1 40 0.349919 0.586535 0.207852 
41 1 41 0.0577078 0.588466 0.86026 
42 1 42 0.770673 0.657041 0.272579 
43 1 43 0.384508 0.346729 0.737762 
44 1 44 0.374956 0.0850065 0.436798 
45 1 45 0.261769 0.592925 0.503602 
46 1 46 0.770952 0.910357 0.903124 
47 1 47 0.919353 0.811148 0.580884 
48 1 48 0.0923353 0.882848 0.289571 
49 1 49 0.822249 0.485768 0.60225 
50 1 50 0.645997 0.210405 0.473318 
51 1 51 0.422588 0.0305701 0.535404 
52 1 52 0.795262 0.367805 0.64267 
53 1 53 0.709333 0.238235 0.121342 
54 1 54 0.351645 0.857127 0.251079 
55 1 55 0.591405 0.883214 0.664839 
56 1 56 0.250329 0.856567 0.975752 
57 1 57 0.58515 0.890945 0.134026 
58 1 58 0.0616389 0.198523 0.908422 
59 1 59 0.87097 0.644616 0.348287 
60 1 60 0.684577 0.353854 0.751554 
61 1 61 0.881339 0.0347818 0.199767 
62 1 62 0.828218 0.740187 0.524382 
63 1 63 0.645979 0.131092 0.121632 
64 1 64 0.26945 0.548625 0.309776 
65 1 65 0.57891 0.951367 0.247828 
66 1 66 0.437413 0.624923 0.49806 
67 1 67 0.419255 0.592684 0.851127 
68 1 68 0.0229042 0.847354 0.181174 
69 1 69 0.607539 0.0284303 0.377891 
70 1 70 0.20878 0.828888 0.389881 
71 1 71 0.399107 0.837518 0.0924597 
72 1 72 0.343726 0.240262 0.124092 
73 1 73 0.980887 0.641441 0.742935 
74 1 74 0.116324 0.587812 0.963109 
75 1 75 0.792878 0.744227 0.383254 
76 1 76 0.873973 0.763161 0.274696 
77 1 77 0.141661 0.80819 0.964366 
78 1 78 0.339947 0.583611 0.618825 
79 1 79 0.795827 0.864346 0.598376 
80 1 80 0.308996 0.169265 0.254157 
81 1 81 0.127337 0.625182 0.306272 
82 1 82 0.0780937 0.92 0.956781 
83 1 83 0.970333 0.856711 0.324726 
84 1 84 0.238364 0.959365 0.439982 
85 1 85 0.276734 0.573986 0.00348306 
86 1 86 0.248752 0.109972 0.696376 
87 1 87 0.740785 0.808231 0.466726 
88 1 88 0.587554 0.407334 0.820423 
89 1 89 0.894861 0.291089 0.299642 
90 1 90 0.494978 0.461903 0.566686 
91 1 91 0.495438 0.753862 0.119134 
92 1 92 0.430213 0.729562 0.361559 
93 1 93 0.155301 0.49015 0.739467 
94 1 94 0.460112 0.943442 0.290556 
95 1 95 0.293967 0.524188 0.125274 
96 1 96 0.125386 0.097961 0.130745 
97 1 97 0.554015 0.881604 0.793296 
98 1 98 0.502756 0.902782 0.493704 
99 1 99 0.195064 0.162565 0.421049 
100 1 100 0.605049 0.345438 0.0369207 
101 1 101 0.429194 0.294197 0.371163 
102 1 102 0.012689 0.34647 0.356882 
103 1 103 0.619503 0.510579 0.722727 
104 1 104 0.910498 0.705275 0.657252 
105 1 105 0.106199 0.700312 0.881889 
106 1 106 0.0504248 0.0974173 0.242633 
107 1 107 0.732757 0.410708 0.522224 
108 1 108 0.156094 0.521039 0.51172 
109 1 109 0.898438 0.967938 0.386608 
110 1 110 0.068923 0.832713 0.0651696 
111 1 111 0.748389 0.0111752 0.237166 
112 1 112 0.553182 0.745299 0.315469 
113 1 113 0.387267 0.710401 0.892587 
114 1 114 0.507717 0.553649 0.755731 
115 1 115 0.981168 0.230275 0.530392 
116 1 116 0.715088 0.295623 0.572205 
117 1 117 0.291413 0.276842 0.95465 
118 1 118 0.0369268 0.805218 0.859328 
119 1 119 0.275941 0.878771 0.823326 
120 1 120 0.471148 0.642696 0.243657 
121 1 121 0.588459 0.591047 0.509031 
122 1 122 0.0694061 0.559892 0.403875 
123 1 123 0.797304 0.543173 0.339999 
124 1 124 0.23718 0.509769 0.613739 
125 1 125 0.498685 0.831745 0.232811 
126 1 126 0.395848 0.403685 0.477797 
127 1 127 0.359691 0.110166 0.823756 
128 1 128 0.199045 0.353264 0.926454 
129 1 129 0.626094 0.0391947 0.607553 
130 1 130 0.339483 0.405167 0.591025 
131 1 131 0.209536 0.700131 0.399166 
132 1 132 0.514792 0.393745 0.435097 
133 1 133 0.0344222 0.484341 0.920571 
134 1 134 0.869788 0.0421525 0.036155 
135 1 135 0.188312 0.56097 0.84486 
136 1 136 0.69699 0.8502 0.814932 
137 1 137 0.472651 0.590473 0.614802 
138 1 138 0.30396 0.322344 0.436421 
139 1 139 0.49519 0.948005 0.910655 
140 1 140 0.419997 0.131648 0.188737 
141 1 141 0.0569545 0.330103 0.888025 
142 1 142 0.824286 0.974043 0.677071 
143 1 143 0.0471024 0.682014 0.422839 
144 1 144 0.171134 0.309716 0.452532 
145 1 145 0.512901 0.423335 0.699984 
146 1 146 0.0731245 0.238306 0.423238 
147 1 147 0.830351 0.37104 0.949993 
148 1 148 0.510916 0.185574 0.791815 
149 1 149 0.946253 0.92425 0.0941875 
150 1 150 0.894789 0.3036 0.647725 
151 1 151 0.912943 0.591653 0.484315 
152 1 152 0.190599 0.577544 0.203516 
153 1 153 0.359053 0.864059 0.715098 
154 1 154 0.970606 0.0549484 0.107534 
155 1 155 0.129474 0.889031 0.611116 
156 1 156 0.202958 0.157399 0.997988 
157 1 157 0.254157 0.654221 0.694885 
158 1 158 0.0610427 0.514832 0.638796 
159 1 159 0.581991 0.764358 0.68556 
160 1 160 0.212448 0.428269 0.175853 
161 1 161 0.573628 0.650298 0.799591 
162 1 162 0.784142 0.283326 0.729041 
163 1 163 0.320404 0.702146 0.459041 
164 1 164 0.568915 0.0104666 0.733491 
165 1 165 0.359037 0.495989 0.908588 
166 1 166 0.70848 0.469077 0.258294 
167 1 167 0.693365 0.265748 0.348719 
168 1 168 0.279203 0.779468 0.888483 
169 1 169 0.396675 0.609483 0.992851 
170 1 170 0.259398 0.941173 0.591897 
171 1 171 0.259703 0.407783 0.034198 
172 1 172 0.582043 0.260277 0.127817 
173 1 173 0.113338 0.257674 0.676961 
174 1 174 0.0598421 0.154855 0.0414799 
175 1 175 0.447211 0.289299 0.490453 
176 1 176 0.33559 0.360767 0.126621 
177 1 177 0.382059 0.0865834 0.082359 
178 1 178 0.690303 0.815523 0.691498 
179 1 179 0.963773 0.0385214 0.309406 
180 1 180 0.828843 0.618791 0.575868 
181 1 181 0.294238 0.832669 0.495972 
182 1 182 0.865063 0.846935 0.027986 
183 1 183 0.41984 0.523906 0.290728 
184 1 184 0.716715 0.352211 0.874714 
185 1 185 0.667202 0.998789 0.144424 
186 1 186 0.681532 0.574592 0.398452 
187 1 187 0.243662 0.639202 0.0944851 
188 1 188 0.843638 0.682316 0.153034 
189 1 189 0.163425 0.241443 0.863381 
190 1 190 0.628467 0.891539 0.922358 
191 1 191 0.339269 0.946556 0.363829 
192 1 192 0.722382 0.105098 0.365544 
193 1 193 0.155921 0.628825 0.620972 
194 1 194 0.25887 0.396469 0.332848 
195 1 195 0.338988 0.278256 0.605469 
196 1 196 0.362865 0.973324 0.889615 
197 1 197 0.991331 0.112181 0.719513 
198 1 198 0.192441 0.560586 0.399506 
199 1 199 0.788996 0.524441 0.0336048 
200 1 200 0.232684 0.431852 0.490349 
201 1 201 0.47058 0.13763 0.394597 
202 1 202 0.625294 0.385 0.330896 
203 1 203 0.184931 0.144386 0.240995 
204 1 204 0.491521 0.962751 0.638737 
205 1 205 0.444366 0.20045 0.289515 
206 1 206 0.379578 0.465988 0.772762 
207 1 207 0.934255 0.166794 0.00573719 
208 1 208 0.125377 0.346229 0.283019 
209 1 209 0.71397 0.426541 0.990739 
210 1 210 0.184806 0.800259 0.511199 
211 1 211 0.596716 0.0337123 0.901077 
212 1 212 0.534443 0.0864037 0.0268121 
213 1 213 0.144389 0.392519 0.649509 
214 1 214 0.428085 0.225236 0.883182 
215 1 215 0.20075 0.94818 0.30412 
216 1 216 0.502975 0.0965576 0.604342 
217 1 217 0.53737 0.259631 0.408896 
218 1 218 0.476553 0.195862 0.0695667 
219 1 219 0.994947 0.385924 0.222281 
220 1 220 0.477405 0.517654 0.439113 
221 1 221 0.805824 0.204305 0.349377 
222 1 222 0.0673282 0.0311977 0.555287 
223 1 223 0.984821 0.993383 0.466302 
224 1 224 0.73227 0.0506602 0.867437 
225 1 225 0.800972 0.404657 0.207666 
226 1 226 0.882312 0.443154 0.294054 
227 1 227 0.23597 0.297163 0.199682 
228 1 228 0.377908 0.0539451 0.31019 
229 1 229 0.260135 0.407754 0.707232 
230 1 230 0.48693 0.398836 0.108922 
231 1 231 0.292056 0.789668 0.125098 
232 1 232 0.0208383 0.7884 0.665481 
233 1 233 0.987377 0.0751313 0.954843 
234 1 234 0.552025 0.152349 0.91297 
235 1 235 0.979184 0.693153 0.907727 
236 1 236 0.717383 0.272091 0.96723 
237 1 237 0.438453 0.0778072 0.943204 
238 1 238 0.608165 0.198975 0.022038 
239 1 239 0.92172 0.581681 0.636683 
240 1 240 0.450813 0.979297 0.0341697 
241 1 241 0.500459 0.828139 0.918103 
242 1 242 0.412596 0.494083 0.664522 
243 1 243 0.384806 0.616019 0.377988 
244 1 244 0.524083 0.619455 0.107175 
245 1 245 0.982133 0.201186 0.318613 
246 1 246 0.26854 0.693878 0.577969 
247 1 247 0.0499898 0.96731 0.374002 
248 1 248 0.955538 0.132506 0.83819 
249 1 249 0.617238 0.255727 0.798749 
250 1 250 0.675226 0.0700509 0.995735 
251 1 251 0.992694 0.467143 0.457368 
252 1 252 0.816712 0.0896924 0.776874 
253 1 253 0.647418 0.57546 0.110735 
254 1 254 0.519162 0.0695927 0.283034 
255 1 255 0.108233 0.609712 0.740978 
256 1 256 0.440162 0.0864076 0.715928 
257 1 257 0.796365 0.896826 0.340939 
258 1 258 0.0992194 0.269928 0.00115335 
259 1 259 0.629822 0.782537 0.106808 
260 1 260 0.699751 0.645345 0.574174 
261 1 261 0.284414 0.810777 0.617485 
262 1 262 0.771002 0.0706495 0.119603 
263 1 263 0.908868 0.998232 0.774814 
264 1 264 0.370271 0.511219 0.522761 
265 1 265 0.656495 0.705532 0.467537 
266 1 266 0.473887 0.468569 0.8542 
267 1 267 0.0505853 0.966004 0.694532 
268 1 268 0.879636 0.541579 0.764414 
269 1 269 0.447933 0.350645 0.608916 
270 1 270 0.833916 0.0579131 0.322593 
271 1 271 0.750268 0.137027 0.238102 
272 1 272 0.661819 0.411581 0.64771 
273 1 273 0.631313 0.27293 0.666705 
274 1 274 0.148026 0.763576 0.637002 
275 1 275 0.3884 0.735367 0.220688 
276 1 276 0.0332604 0.108352 0.38896 
277 1 277 0.3738 0.669695 0.108751 
278 1 278 0.984634 0.814763 0.979842 
279 1 279 0.689462 0.875319 0.0500832 
280 1 280 0.742179 0.183604 0.649876 
281 1 281 0.531051 0.12462 0.492069 
282 1 282 0.724447 0.540633 0.519529 
283 1 283 0.150322 0.668847 0.505039 
284 1 284 0.64721 0.149483 0.5792 
285 1 285 0.214518 0.925248 0.703025 
286 1 286 0.295833 0.0733047 0.968305 
287 1 287 0.314244 0.312775 0.821976 
288 1 288 0.943908 0.763577 0.79056 
289 1 289 0.117109 0.434992 0.849254 
290 1 290 0.3999 0.86468 0.600414 
291 1 291 0.725501 0.892988 0.189287 
292 1 292 0.186287 0.75998 0.0709531 
293 1 293 0.517774 0.643808 0.929662 
294 1 294 0.527984 0.705274 0.453216 
295 1 295 0.262272 0.918559 0.177703 
296 1 296 0.826971 0.79881 0.7492 
297 1 297 0.0881967 0.295202 0.559066 
298 1 298 0.879966 0.195619 0.745484 
299 1 299 0.861654 0.00269652 0.891644 
300 1 300 0.282329 0.18463 0.882707 
301 1 301 0.629668 0.46355 0.474996 
302 1 302 0.770564 0.167989 0.470371 
303 1 303 0.0139479 0.504346 0.755009 
304 1 304 0.666337 0.0749402 0.478577 
305 1 305 0.326576 0.748883 0.0089171 
306 1 306 0.115709 0.0916213 0.923572 
307 1 307 0.545588 0.214455 0.570904 
308 1 308 0.541612 0.879363 0.354111 
309 1 309 0.678527 0.681718 0.346723 
310 1 310 0.127364 0.740521 0.298487 
311 1 311 0.865904 0.349562 0.533166 
312 1 312 0.208393 0.479982 0.939704 
313 1 313 0.0366066 0.516254 0.0642643 
314 1 314 0.973771 0.868749 0.461892 
315 1 315 0.483817 0.415006 0.967272 
316 1 316 0.778821 0.63764 0.45356 
317 1 317 0.109683 0.398685 0.0075265 
318 1 318 0.785533 0.553081 0.183486 
319 1 319 0.0678512 0.382039 0.748363 
320 1 320 0.697426 0.938179 0.68794 
321 1 321 0.427122 0.859725 0.383398 
322 1 322 0.598311 0.971162 0.0270289 
323 1 323 0.0547781 0.710263 0.0236101 
324 1 324 0.638818 0.813399 0.242688 
325 1 325 0.708552 0.695855 0.177771 
326 1 326 0.982889 0.738538 0.236316 
327 1 327 0.939392 0.471065 0.573829 
328 1 328 0.482764 0.82611 0.704167 
329 1 329 0.73704 0.441746 0.399764 
330 1 330 0.0794533 0.417889 0.540894 
331 1 331 0.985395 0.355804 0.502856 
332 1 332 0.741432 0.954932 0.520694 
333 1 333 0.597612 0.151893 0.357484 
334 1 334 0.790218 0.26794 0.225832 
335 1 335 0.483789 0.335179 0.819867 
336 1 336 0.597606 0.441844 0.948729 
337 1 337 0.60818 0.671928 0.0362669 
338 1 338 0.860892 0.775146 0.910515 
339 1 339 0.992737 0.64627 0.144268 
340 1 340 0.0930396 0.727056 0.75709 
341 1 341 0.444713 0.942178 0.155033 
342 1 342 0.909906 0.590741 0.241978 
343 1 343 0.403987 0.724987 0.605449 
344 1 344 0.351191 0.952905 0.498327 
345 1 345 0.87235 0.916351 0.242453 
346 1 346 0.362204 0.463363 0.0304171 
347 1 347 0.492089 0.300234 0.963263 
348 1 348 0.541236 0.524745 0.215715 
349 1 349 0.268922 0.439983 0.835173 
350 1 350 0.133849 0.981213 0.855118 
351 1 351 0.284016 0.225565 0.499058 
352 1 352 0.219746 0.187112 0.599185 
353 1 353 0.355665 0.00211115 0.656697 
354 1 354 0.651728 0.32687 0.448551 
355 1 355 0.929053 0.886383 0.703974 
356 1 356 0.930981 0.582491 0.873432 
357 1 357 0.347027 0.18913 0.736113 
358 1 358 0.657734 0.964292 0.807012 
359 1 359 0.515574 0.822805 0.580824 
360 1 360 0.872338 0.955293 0.549809 
361 1 361 0.0229518 0.0331158 0.826397 
362 1 362 0.606523 0.288275 0.918046 
363 1 363 0.29035 0.617682 0.875058 
364 1 364 0.599606 0.425888 0.186113 
365 1 365 0.944109 0.325853 0.773396 
366 1 366 0.566703 0.546111 0.868696 
367 1 367 0.251373 0.281275 0.704254 
368 1 368 0.139389 0.0544529 0.467239 
369 1 369 0.746249 0.0547151 0.584041 
370 1 370 0.828564 0.357721 0.828856 
371 1 371 0.526941 0.70724 0.579379 
372 1 372 0.774597 0.297151 0.451719 
373 1 373 0.15181 0.0340914 0.744846 
374 1 374 0.957194 0.256081 0.874463 
375 1 375 0.230514 0.332992 0.568813 
376 1 376 0.517461 0.295043 0.70938 
377 1 377 0.845792 0.098071 0.641497 
378 1 378 0.551474 0.270991 0.28575 
379 1 379 0.770826 0.789744 0.110974 
380 1 380 0.0992278 0.21745 0.296564 
381 1 381 0.0292705 0.584903 0.52699 
382 1 382 0.492457 0.0391617 0.832913 
383 1 383 0.88788 0.56302 0.0970617 
384 1 384 0.586395 0.695344 0.206935 
385 1 385 0.626536 0.11169 0.804116 
386 1 386 0.707443 0.0596982 0.722298 
387 1 387 0.0781973 0.810286 0.40343 
388 1 388 0.115328 0.21557 0.143392 
389 1 389 0.42248 0.419033 0.202446 
390 1 390 0.91185 0.131109 0.402905 
391 1 391 0.695287 0.172189 0.888603 
392 1 392 0.696311 0.484972 0.853478 
393 1 393 0.305235 0.457844 0.231985 
394 1 394 0.00548468 0.90902 0.58876 
395 1 395 0.857818 0.674077 0.805869 
396 1 396 0.0994942 0.109082 0.657865 
397 1 397 0.668688 0.6649 0.913463 
398 1 398 0.215066 0.296667 0.0569119 
399 1 399 0.966484 0.369471 0.945792 
400 1 400 0.278798 0.541212 0.742758 
401 1 401 0.621335 0.50395 0.585942 
402 1 402 0.521169 0.86173 0.0273421 
403 1 403 0.655712 0.206111 0.2583 
404 1 404 0.819855 0.93328 0.128013 
405 1 405 0.282147 0.0776838 0.520935 
406 1 406 0.741576 0.785724 0.945497 
407 1 407 0.84895 0.879045 0.454191 
408 1 408 0.843933 0.411414 0.0884687 
409 1 409 0.807704 0.271392 0.0617191 
410 1 410 0.494575 0.376708 0.298523 
411 1 411 0.945331 0.741678 0.0892985 
412 1 412 0.889436 0.482167 0.977168 
413 1 413 0.298176 0.681661 0.301035 
414 1 414 0.620653 0.774337 0.974545 
415 1 415 0.0860132 0.160685 0.54481 
416 1 416 0.00128785 0.363923 0.625459 
417 1 417 0.147213 0.857132 0.186352 
418 1 418 0.927789 0.469613 0.15846 
419 1 419 0.952324 0.111195 0.556978 
420 1 420 0.650677 0.549247 0.968519 
421 1 421 0.128618 0.416588 0.409198 
422 1 422 0.233534 0.806056 0.264 
423 1 423 0.888394 0.158415 0.250086 
424 1 424 0.556063 0.487687 0.347162 
425 1 425 0.741419 0.585346 0.816235 
426 1 426 0.0974007 0.336833 0.141948 
427 1 427 0.575746 0.807221 0.458959 
428 1 428 0.580312 0.140939 0.690856 
429 1 429 0.607744 0.772265 0.841485 
430 1 430 0.779445 0.455758 0.757939 
431 1 431 0.962435 0.169774 0.156203 
432 1 432 0.129823 0.0473913 0.327485 
433 1 433 0.041823 0.671495 0.621588 
434 1 434 0.875961 0.697726 0.00263201 
435 1 435 0.134398 0.992958 0.181531 
436 1 436 0.40507 0.183343 0.519698 
437 1 437 0.708569 0.364951 0.101922 
438 1 438 0.851084 0.0592455 0.496186 
439 1 439 0.321225 0.949233 0.0543697 
440 1 440 0.701622 0.474048 0.123958 
441 1 441 0.260919 0.0442983 0.258076 
442 1 442 0.651509 0.92578 0.441469 
443 1 443 0.209597 0.67898 0.959656 
444 1 444 0.94169 0.456354 0.845069 
445 1 445 0.997934 0.651256 0.309654 
446 1 446 0.059349 0.984991 0.0644851 
447 1 447 0.16375 0.504013 0.0744873 
448 1 448 0.236006 0.693276 0.19907 
449 1 449 0.0149206 0.271909 0.215955 
450 1 450 0.98802 0.228188 0.656113 
451 1 451 0.536231 0.622729 0.3512 
452 1 452 0.809441 0.245606 0.869803 
453 1 453 0.209401 0.701902 0.809239 
454 1 454 0.57567 0.478537 0.0711933 
455 1 455 0.393125 0.841847 0.825925 
456 1 456 0.387565 0.414291 0.353325 
457 1 457 0.315764 0.0085902 0.764312 
458 1 458 0.0794206 0.456096 0.170788 
459 1 459 0.962995 0.947241 0.95447 
460 1 460 0.849006 0.123542 0.906135 
461 1 461 0.260156 0.0516618 0.105128 
462 1 462 0.22918 0.2655 0.335771 
463 1 463 0.370442 0.179496 0.996801 
464 1 464 0.0107246 0.920542 0.807252 
465 1 465 0.978745 0.279891 0.070755 
466 1 466 0.797668 0.655462 0.706247 
467 1 467 0.663561 0.324888 0.222979 
468 1 468 0.759151 0.785752 0.253109 
469 1 469 0.770944 0.749996 0.638142 
470 1 470 0.36422 0.0189619 0.191373 
471 1 471 0.720886 0.194417 0.775277 
472 1 472 0.893561 0.389279 0.414529 
473 1 473 0.576353 0.331374 0.555346 
474 1 474 0.0979644 0.740781 0.173815 
475 1 475 0.36328 0.308749 0.249688 
476 1 476 0.899782 0.8668 0.855079 
477 1 477 0.918255 0.246489 0.420473 
478 1 478 0.396756 0.310812 0.0351307 
479 1 479 0.124925 0.911862 0.48484 
480 1 480 0.758465 0.983683 0.0141219 
481 1 481 0.442935 0.220985 0.649136 
482 1 482 0.367261 0.370011 0.917866 
483 1 483 0.972286 0.587074 0.9973 
484 1 484 0.184446 0.344337 0.805787 
485 1 485 0.554872 0.0102048 0.518477 
486 1 486 0.736995 0.543627 0.665385 
487 1 487 0.677991 0.93401 0.320795 
488 1 488 0.0504149 0.565819 0.217566 
489 1 489 0.388282 0.599769 0.73782 
490 1 490 0.930791 0.74875 0.393133 
491 1 491 0.166492 0.00941707 0.993308 
492 1 492 0.496534 0.535874 0.988596 
493 1 493 0.782325 0.351253 0.335733 
494 1 494 0.380444 0.864579 0.964578 
495 1 495 0.945887 0.710813 0.522817 
496 1 496 0.819019 0.486295 0.880178 
497 1 497 0.549601 0.166582 0.188538 
498 1 498 0.467836 0.735248 0.996507 
499 1 499 0.842814 0.169168 0.122863 
500 1 500 0.526482 0.0350726 0.137891 
501 1 501 0.950621 0.0176168 0.641221 
502 1 502 0.197542 0.0456458 0.607413 
503 1 503 0.918968 0.536459 0.38132 
504 1 504 0.439108 0.54222 0.128068 
505 1 505 0.646388 0.569435 0.268514 
506 1 506 0.224022 0.789583 0.722675 
507 1 507 0.219121 0.0922482 0.84632 
508 1 508 0.790329 0.929778 0.777544 
509 1 509 0.303191 0.496582 0.407834 
510 1 510 0.589684 0.629479 0.657669 
511 1 511 0.977532 0.395015 0.0729273 
512 1 512 0.477926 0.00287829 0.415356 
ITEM: TIMESTEP
20001000
ITEM: NUMBER OF ATOMS
512
ITEM: BOX BOUNDS pp pp pp
-6.5212762009098701e-02 5.7201803762020219e+01
-6.5212762009098701e-02 5.7201803762020219e+01
-6.5212762009098701e-02 5.7201803762020219e+01
ITEM: ATOMS id type mol xs ys zs 
1 1 1 0.660554 0.773442 0.58175 
2 1 2 0.896661 0.291343 0.174324 
3 1 3 0.475556 0.748526 0.822567 
4 1 4 0.120725 0.612027 0.104609 
5 1 5 0.891076 0.820338 0.165545 
6 1 6 0.323767 0.780933 0.360082 
7 1 7 0.352238 0.728263 0.748069 
8 1 8 0.014093 0.976547 0.211583 
9 1 9 0.00862143 0.473004 0.302894 
10 1 10 0.0932016 0.134953 0.793462 
11 1 11 0.351151 0.115445 0.61984 
12 1 12 0.143764 0.857127 0.846123 
13 1 13 0.752078 0.726794 0.828351 
14 1 14 0.650266 0.887653 0.554189 
15 1 15 0.342117 0.209819 0.381178 
16 1 16 0.439313 0.950709 0.762664 
17 1 17 0.928867 0.422375 0.685332 
18 1 18 0.157521 0.477367 0.290607 
19 1 19 0.46038 0.291273 0.173473 
20 1 20 0.177858 0.919389 0.0818887 
21 1 21 0.486194 0.686396 0.708658 
22 1 22 0.768706 0.998331 0.406288 
23 1 23 0.8783 0.270513 0.973893 
24 1 24 0.673612 0.667722 0.71459 
25 1 25 0.63925 0.0681257 0.253645 
26 1 26 0.0494744 0.768641 0.536936 
27 1 27 0.831723 0.61621 0.924031 
28 1 28 0.784102 0.146015 0.0124005 
29 1 29 0.676388 0.818002 0.356712 
30 1 30 0.2419 0.972269 0.910075 
31 1 31 0.200207 0.191154 0.761487 
32 1 32 0.433694 0.78312 0.491675 
33 1 33 0.846539 0.207232 0.558485 
34 1 34 0.832648 0.491279 0.471483 
35 1 35 0.743903 0.675092 0.0546638 
36 1 36 0.0438171 0.242441 0.773654 
37 1 37 0.239269 0.164661 0.112572 
38 1 38 0.103195 0.851455 0.73734 
39 1 39 0.257424 0.0598158 0.370451 
40 1 40 0.342759 0.597096 0.209226 
41 1 41 0.0585348 0.592688 0.849763 
42 1 42 0.775464 0.654684 0.26945 
43 1 43 0.389383 0.347232 0.727116 
44 1 44 0.362963 0.0816083 0.424424 
45 1 45 0.279829 0.602243 0.499707 
46 1 46 0.765897 0.906539 0.900094 
47 1 47 0.904729 0.819273 0.581982 
48 1 48 0.0950942 0.880136 0.293479 
49 1 49 0.821281 0.489204 0.604936 
50 1 50 0.640522 0.210246 0.474482 
51 1 51 0.438026 0.0312123 0.548041 
52 1 52 0.786705 0.382278 0.638583 
53 1 53 0.707063 0.23569 0.116234 
54 1 54 0.355299 0.863832 0.24655 
55 1 55 0.58721 0.892622 0.676663 
56 1 56 0.248613 0.872433 0.986288 
57 1 57 0.590615 0.914502 0.14274 
58 1 58 0.0586872 0.194338 0.906897 
59 1 59 0.880533 0.656566 0.345503 
60 1 60 0.692282 0.349798 0.751106 
61 1 61 0.883629 0.0444909 0.186987 
62 1 62 0.819351 0.728386 0.522497 
63 1 63 0.64612 0.137078 0.125188 
64 1 64 0.274002 0.552785 0.305525 
65 1 65 0.589611 0.95198 0.250749 
66 1 66 0.424986 0.626427 0.497548 
67 1 67 0.418899 0.590929 0.857442 
68 1 68 0.0218714 0.868083 0.18514 
69 1 69 0.601571 0.0304344 0.375103 
70 1 70 0.209617 0.837023 0.386164 
71 1 71 0.402886 0.847756 0.11429 
72 1 72 0.349197 0.224149 0.131478 
73 1 73 0.978367 0.642765 0.746688 
74 1 74 0.12602 0.592054 0.971753 
75 1 75 0.789164 0.75177 0.378218 
76 1 76 0.876008 0.777663 0.280126 
77 1 77 0.133656 0.806721 0.969032 
78 1 78 0.323055 0.591374 0.619756 
79 1 79 0.80237 0.868094 0.612485 
80 1 80 0.31281 0.166124 0.244845 
81 1 81 0.143533 0.62031 0.310397 
82 1 82 0.0849225 0.92108 0.937159 
83 1 83 0.963517 0.847965 0.312904 
84 1 84 0.236025 0.957918 0.458542 
85 1 85 0.284254 0.568521 0.991953 
86 1 86 0.257125 0.103703 0.694096 
87 1 87 0.73382 0.82258 0.48082 
88 1 88 0.581167 0.413622 0.821813 
89 1 89 0.905579 0.306816 0.309866 
90 1 90 0.505231 0.463559 0.565312 
91 1 91 0.505672 0.752925 0.124576 
92 1 92 0.444234 0.725207 0.352887 
93 1 93 0.157172 0.506105 0.721929 
94 1 94 0.454583 0.965879 0.278348 
95 1 95 0.297589 0.516666 0.112515 
96 1 96 0.11732 0.091271 0.107279 
97 1 97 0.561791 0.8693 0.796627 
98 1 98 0.497512 0.90628 0.484705 
99 1 99 0.195605 0.156447 0.41763 
100 1 100 0.610168 0.349576 0.0374162 
101 1 101 0.421162 0.305698 0.355797 
102 1 102 0.0133496 0.352073 0.357819 
103 1 103 0.629006 0.51517 0.72011 
104 1 104 0.903999 0.715574 0.655297 
105 1 105 0.107792 0.701386 0.893796 
106 1 106 0.0645467 0.103115 0.216954 
107 1 107 0.73373 0.404076 0.525678 
108 1 108 0.143444 0.527762 0.525944 
109 1 109 0.9033 0.973947 0.37979 
110 1 110 0.0574297 0.843795 0.0741898 
111 1 111 0.754092 -0.000536918 0.242572 
112 1 112 0.562533 0.756788 0.315929 
113 1 113 0.387029 0.705615 0.887565 
114 1 114 0.507435 0.554458 0.740952 
115 1 115 0.967077 0.225655 0.522123 
116 1 116 0.715605 0.277014 0.575746 
117 1 117 0.287115 0.276338 0.962473 
118 1 118 0.0344138 0.798227 0.867633 
119 1 119 0.262892 0.880502 0.826642 
120 1 120 0.469941 0.645191 0.237002 
121 1 121 0.574344 0.59343 0.503483 
122 1 122 0.0687969 0.553792 0.389124 
123 1 123 0.790965 0.547616 0.3325 
124 1 124 0.221246 0.511007 0.61196 
125 1 125 0.504257 0.839393 0.221802 
126 1 126 0.387619 0.413475 0.470994 
127 1 127 0.367774 0.106715 0.835939 
128 1 128 0.20359 0.357743 0.929856 
129 1 129 0.620355 0.0102107 0.610441 
130 1 130 0.337381 0.41346 0.593302 
131 1 131 0.197542 0.699323 0.394967 
132 1 132 0.517798 0.398904 0.439609 
133 1 133 0.0253637 0.484168 0.927046 
134 1 134 0.873445 0.0431897 0.0363842 
135 1 135 0.189167 0.571832 0.829001 
136 1 136 0.706725 0.841133 0.807892 
137 1 137 0.459013 0.595797 0.615175 
138 1 138 0.308482 0.326022 0.444006 
139 1 139 0.494509 0.93552 0.907961 
140 1 140 0.428039 0.130969 0.195672 
141 1 141 0.0650636 0.326491 0.892107 
142 1 142 0.837094 0.969503 0.663601 
143 1 143 0.0433451 0.682035 0.426791 
144 1 144 0.161549 0.304056 0.459594 
145 1 145 0.528876 0.423157 0.69783 
146 1 146 0.0643399 0.244744 0.421409 
147 1 147 0.819196 0.373757 0.940632 
148 1 148 0.494171 0.170536 0.785157 
149 1 149 0.946832 0.928575 0.101189 
150 1 150 0.891109 0.30382 0.647531 
151 1 151 0.918108 0.603732 0.47987 
152 1 152 0.194639 0.563548 0.189379 
153 1 153 0.347668 0.867481 0.719479 
154 1 154 0.982488 0.066404 0.112546 
155 1 155 0.13808 0.891027 0.608063 
156 1 156 0.212381 0.161756 0.988297 
157 1 157 0.237985 0.655499 0.704339 
158 1 158 0.0652481 0.508151 0.63286 
159 1 159 0.595033 0.746321 0.690419 
160 1 160 0.199633 0.416979 0.167791 
161 1 161 0.576718 0.650835 0.79812 
162 1 162 0.79559 0.273087 0.718252 
163 1 163 0.330138 0.701512 0.45622 
164 1 164 0.562653 0.00441711 0.729948 
165 1 165 0.359057 0.487693 0.917797 
166 1 166 0.707191 0.447791 0.271786 
167 1 167 0.697201 0.269312 0.3551 
168 1 168 0.280508 0.755096 0.898138 
169 1 169 0.397328 0.608249 0.996675 
170 1 170 0.255419 0.936862 0.585496 
171 1 171 0.266663 0.401297 0.0385573 
172 1 172 0.581769 0.2766 0.141083 
173 1 173 0.112343 0.254739 0.683055 
174 1 174 0.0476309 0.151678 0.0352424 
175 1 175 0.432319 0.291172 0.496708 
176 1 176 0.342351 0.376114 0.131613 
177 1 177 0.396355 0.0773421 0.0908433 
178 1 178 0.700948 0.819649 0.696619 
179 1 179 0.972804 0.0457521 0.298715 
180 1 180 0.826477 0.608828 0.57449 
181 1 181 0.312753 0.82701 0.481604 
182 1 182 0.860201 0.859288 0.0125445 
183 1 183 0.432753 0.528065 0.294354 
184 1 184 0.700332 0.370184 0.872583 
185 1 185 0.667761 0.00975884 0.124595 
186 1 186 0.66565 0.559485 0.402948 
187 1 187 0.242314 0.63768 0.0845132 
188 1 188 0.842049 0.688222 0.169772 
189 1 189 0.172075 0.242528 0.876688 
190 1 190 0.636119 0.905864 0.924083 
191 1 191 0.327103 0.937473 0.350013 
192 1 192 0.714541 0.11289 0.360486 
193 1 193 0.163337 0.618732 0.623832 
194 1 194 0.257099 0.390011 0.319546 
195 1 195 0.339971 0.275462 0.608922 
196 1 196 0.3767 0.970173 0.903878 
197 1 197 0.983202 0.104249 0.718711 
198 1 198 0.195789 0.56909 0.416864 
199 1 199 0.771939 0.54374 0.0368528 
200 1 200 0.244938 0.433452 0.488194 
201 1 201 0.472216 0.143632 0.384799 
202 1 202 0.626014 0.389184 0.349953 
203 1 203 0.190815 0.158368 0.234968 
204 1 204 0.478877 0.955027 0.626807 
205 1 205 0.453594 0.200824 0.290583 
206 1 206 0.37699 0.466742 0.776304 
207 1 207 0.917747 0.168805 0.0213082 
208 1 208 0.125372 0.350697 0.278872 
209 1 209 0.71758 0.426009 0.988381 
210 1 210 0.18057 0.774499 0.525708 
211 1 211 0.604302 0.0477087 0.901385 
212 1 212 0.536674 0.0907744 0.0353221 
213 1 213 0.141654 0.382514 0.634886 
214 1 214 0.413569 0.217962 0.880561 
215 1 215 0.202576 0.933381 0.310765 
216 1 216 0.501768 0.104718 0.611113 
217 1 217 0.549033 0.276752 0.411042 
218 1 218 0.481785 0.194739 0.0636363 
219 1 219 0.984615 0.378331 0.213429 
220 1 220 0.479636 0.51813 0.438553 
221 1 221 0.811147 0.216536 0.343687 
222 1 222 0.0737779 0.0162628 0.556877 
223 1 223 0.983047 1.00286 0.481497 
224 1 224 0.733156 0.0493966 0.866026 
225 1 225 0.809474 0.413733 0.19271 
226 1 226 0.875886 0.432615 0.296828 
227 1 227 0.231043 0.293293 0.204607 
228 1 228 0.379757 0.0523548 0.305681 
229 1 229 0.260324 0.428348 0.693612 
230 1 230 0.483769 0.384092 0.0997043 
231 1 231 0.278157 0.794962 0.132508 
232 1 232 0.0188935 0.788579 0.671731 
233 1 233 0.981163 0.0755309 0.955387 
234 1 234 0.542246 0.164378 0.921674 
235 1 235 0.970345 0.697311 0.904109 
236 1 236 0.722424 0.267555 0.979662 
237 1 237 0.433607 0.0801694 0.953774 
238 1 238 0.608948 0.213338 0.0228055 
239 1 239 0.930871 0.580308 0.645345 
240 1 240 0.451145 0.975036 0.0258186 
241 1 241 0.499283 0.816859 0.909464 
242 1 242 0.402517 0.485334 0.656544 
243 1 243 0.390704 0.599946 0.375131 
244 1 244 0.510034 0.624529 0.0932419 
245 1 245 0.983969 0.197523 0.323158 
246 1 246 0.292484 0.699359 0.584965 
247 1 247 0.0565106 0.946171 0.378209 
248 1 248 0.947129 0.130794 0.836685 
249 1 249 0.612919 0.253924 0.793327 
250 1 250 0.678464 0.0800925 0.0107622 
251 1 251 0.00427025 0.471951 0.449174 
252 1 252 0.822546 0.0856672 0.780839 
253 1 253 0.644951 0.584461 0.12821 
254 1 254 0.510737 0.0661386 0.29066 
255 1 255 0.104557 0.611611 0.745464 
256 1 256 0.44022 0.0818261 0.708193 
257 1 257 0.801897 0.870992 0.345981 
258 1 258 0.0905963 0.259917 0.0104009 
259 1 259 0.634846 0.775862 0.123807 
260 1 260 0.699975 0.656798 0.583013 
261 1 261 0.28978 0.82822 0.613832 
262 1 262 0.763183 0.0770655 0.114711 
263 1 263 0.909947 0.00406418 0.765546 
264 1 264 0.35238 0.516489 0.533441 
265 1 265 0.657493 0.706792 0.47037 
266 1 266 0.46921 0.462244 0.848973 
267 1 267 0.0603191 0.967818 0.693094 
268 1 268 0.872798 0.5365 0.75931 
269 1 269 0.445258 0.348221 0.606093 
270 1 270 0.830913 0.0553804 0.325569 
271 1 271 0.763057 0.135777 0.225635 
272 1 272 0.657196 0.403387 0.639732 
273 1 273 0.637557 0.267047 0.667175 
274 1 274 0.15027 0.756031 0.635756 
275 1 275 0.380825 0.7406 0.225543 
276 1 276 0.0364531 0.110951 0.400977 