ITEM: TIMESTEP
40000000
ITEM: NUMBER OF ATOMS
20992
ITEM: BOX BOUNDS pp pp pp
1.1850868410748419e-01 5.7201185526049684e+01
1.1850868410748419e-01 5.7201185526049684e+01
1.1850868410748419e-01 5.7201185526049684e+01
ITEM: ATOMS id type mol xs ys zs 
1 3 1 0.181369 0.346694 0.480169 
2 1 1 0.200159 0.31678 0.511892 
3 2 1 0.213691 0.304517 0.504916 
4 2 1 0.207148 0.318092 0.529857 
5 2 1 0.183139 0.307738 0.51273 
6 1 1 0.201444 0.341006 0.498968 
7 2 1 0.198777 0.352091 0.514074 
8 1 1 0.227646 0.344886 0.493617 
9 2 1 0.230304 0.363726 0.488107 
10 2 1 0.238093 0.345097 0.509618 
11 2 1 0.235696 0.334511 0.480422 
12 1 1 0.150703 0.364905 0.509956 
13 2 1 0.164885 0.371264 0.519782 
14 2 1 0.141661 0.378465 0.502382 
15 2 1 0.1391 0.357082 0.523086 
16 1 1 0.15597 0.34554 0.492809 
17 2 1 0.15417 0.330203 0.503376 
18 1 1 0.134263 0.345052 0.476303 
19 2 1 0.13083 0.362612 0.468429 
20 2 1 0.135823 0.331933 0.462623 
21 2 1 0.118502 0.3398 0.485122 
22 1 1 0.168159 0.384263 0.452195 
23 2 1 0.153095 0.392652 0.461156 
24 2 1 0.176379 0.399461 0.441851 
25 2 1 0.161903 0.371503 0.439684 
26 1 1 0.186588 0.373041 0.471321 
27 2 1 0.202437 0.370432 0.461673 
28 1 1 0.189608 0.393225 0.48948 
29 2 1 0.196729 0.388522 0.506352 
30 2 1 0.199585 0.406621 0.480848 
31 2 1 0.172626 0.400184 0.491463 
32 1 1 0.204276 0.325057 0.445034 
33 2 1 0.202444 0.312927 0.429665 
34 2 1 0.210753 0.340575 0.437886 
35 2 1 0.218534 0.318045 0.455862 
36 1 1 0.180097 0.328205 0.45895 
37 2 1 0.168259 0.333731 0.445213 
38 1 1 0.173763 0.302602 0.46429 
39 2 1 0.188794 0.291643 0.471204 
40 2 1 0.158555 0.300487 0.474925 
41 2 1 0.171053 0.292095 0.448509 
42 3 2 0.501249 0.0146569 0.10151 
43 1 2 0.522947 0.99535 0.140303 
44 2 2 0.5098 0.982113 0.147213 
45 2 2 0.538609 0.986188 0.146013 
46 2 2 0.523538 0.0122944 0.152682 
47 1 2 0.521805 0.998375 0.11296 
48 2 2 0.537585 0.00731857 0.110621 
49 1 2 0.5265 0.973792 0.101719 
50 2 2 0.523238 0.974201 0.0827039 
51 2 2 0.544004 0.968127 0.10526 
52 2 2 0.514215 0.961192 0.108651 
53 1 2 0.492665 0.0448019 0.0665114 
54 2 2 0.500272 0.0489915 0.0487696 
55 2 2 0.475693 0.0359029 0.0614106 
56 2 2 0.489614 0.0616281 0.0764783 
57 1 2 0.51019 0.0270341 0.0778296 
58 2 2 0.509406 0.0125377 0.0649919 
59 1 2 0.53502 0.0355717 0.077163 
60 2 2 0.537658 0.0448441 0.0606361 
61 2 2 0.540009 0.0478815 0.0915485 
62 2 2 0.547316 0.0213491 0.0761042 
63 1 2 0.476421 0.985139 0.0757852 
64 2 2 0.478811 0.993983 0.0580503 
65 2 2 0.487993 0.970907 0.0781612 
66 2 2 0.459207 0.976 0.0735698 
67 1 2 0.477935 0.00118343 0.0969207 
68 2 2 0.463242 0.0139428 0.0944496 
69 1 2 0.469818 0.985081 0.116103 
70 2 2 0.481539 0.971328 0.120079 
71 2 2 0.466665 0.992381 0.133087 
72 2 2 0.452876 0.979011 0.112124 
73 1 2 0.514422 0.0527184 0.12699 
74 2 2 0.511069 0.0607663 0.143955 
75 2 2 0.531377 0.0445774 0.129173 
76 2 2 0.515981 0.0659628 0.114649 
77 1 2 0.494858 0.0344995 0.120117 
78 2 2 0.492865 0.0252547 0.135608 
79 1 2 0.470052 0.0454152 0.120758 
80 2 2 0.468732 0.0560581 0.13619 
81 2 2 0.466185 0.0571833 0.1054 
82 2 2 0.455604 0.0326402 0.1211 
83 3 3 0.214266 0.0950754 0.155018 
84 1 3 0.241574 0.131404 0.16795 
85 2 3 0.233907 0.133132 0.185734 
86 2 3 0.255905 0.119858 0.172249 
87 2 3 0.249285 0.148262 0.16153 
88 1 3 0.22198 0.122359 0.152321 
89 2 3 0.206355 0.131168 0.158194 
90 1 3 0.221795 0.1325 0.126226 
91 2 3 0.205346 0.130819 0.118771 
92 2 3 0.222882 0.150832 0.126423 
93 2 3 0.234017 0.125375 0.113965 
94 1 3 0.236946 0.0522513 0.154256 
95 2 3 0.253664 0.0464333 0.161486 
96 2 3 0.222495 0.0453549 0.165673 
97 2 3 0.235809 0.0440971 0.137093 
98 1 3 0.237534 0.0793292 0.153154 
99 2 3 0.247602 0.0846253 0.168241 
100 1 3 0.252856 0.0834055 0.131975 
101 2 3 0.245022 0.0808346 0.11508 
102 2 3 0.259216 0.101858 0.131134 
103 2 3 0.270295 0.0736474 0.133508 
104 1 3 0.219513 0.0807999 0.201115 
105 2 3 0.229166 0.0646846 0.19761 
106 2 3 0.231042 0.095024 0.204069 
107 2 3 0.210085 0.0781884 0.217148 
108 1 3 0.203042 0.0890473 0.17991 
109 2 3 0.193039 0.0735984 0.178793 
110 1 3 0.184634 0.106702 0.189354 
111 2 3 0.174601 0.0971253 0.201214 
112 2 3 0.193595 0.121018 0.196657 
113 2 3 0.171512 0.115422 0.178019 
114 1 3 0.190844 0.0627534 0.131645 
115 2 3 0.204828 0.0562647 0.120394 
116 2 3 0.189516 0.0523238 0.14673 
117 2 3 0.174844 0.0579936 0.121921 
118 1 3 0.195236 0.0876179 0.135841 
119 2 3 0.202743 0.0922367 0.11929 
120 1 3 0.170663 0.1009 0.136674 
121 2 3 0.173994 0.119469 0.138991 
122 2 3 0.16203 0.100856 0.11945 
123 2 3 0.15725 0.0935634 0.148294 
124 3 4 0.763857 0.433516 0.886836 
125 1 4 0.793334 0.452085 0.921243 
126 2 4 0.809298 0.463303 0.922566 
127 2 4 0.778932 0.462541 0.929962 
128 2 4 0.796924 0.43715 0.932394 
129 1 4 0.789126 0.444995 0.894671 
130 2 4 0.792719 0.460375 0.884005 
131 1 4 0.812556 0.431114 0.887685 
132 2 4 0.826737 0.441747 0.893937 
133 2 4 0.815722 0.413847 0.895528 
134 2 4 0.816267 0.429167 0.869091 
135 1 4 0.742625 0.473545 0.899693 
136 2 4 0.732138 0.480967 0.886248 
137 2 4 0.73796 0.480622 0.917162 
138 2 4 0.759865 0.481606 0.896173 
139 1 4 0.7437 0.446349 0.900849 
140 2 4 0.748764 0.442915 0.919689 
141 1 4 0.71892 0.43673 0.900759 
142 2 4 0.706736 0.441338 0.886261 
143 2 4 0.717657 0.417567 0.903994 
144 2 4 0.709641 0.443387 0.915133 
145 1 4 0.77913 0.442363 0.842793 
146 2 4 0.789295 0.426117 0.843663 
147 2 4 0.773381 0.444573 0.824464 
148 2 4 0.790288 0.457184 0.844825 
149 1 4 0.759056 0.440075 0.8606 
150 2 4 0.752507 0.458499 0.859265 
151 1 4 0.741187 0.424928 0.847783 
152 2 4 0.726481 0.421946 0.857488 
153 2 4 0.736663 0.432338 0.832336 
154 2 4 0.74825 0.407608 0.842768 
155 1 4 0.779974 0.39012 0.877312 
156 2 4 0.779772 0.394019 0.85845 
157 2 4 0.797875 0.387243 0.884711 
158 2 4 0.770681 0.372908 0.876766 
159 1 4 0.7629 0.40647 0.891395 
160 2 4 0.744922 0.401372 0.885289 
161 1 4 0.763252 0.398438 0.916962 
162 2 4 0.746876 0.400853 0.923795 
163 2 4 0.765396 0.379181 0.918927 
164 2 4 0.778032 0.405352 0.927507 
165 3 5 0.942035 0.357473 0.729232 
166 1 5 0.989024 0.360425 0.731312 
167 2 5 0.985268 0.356703 0.749588 
168 2 5 0.00291308 0.348057 0.729338 
169 2 5 0.994984 0.377072 0.727568 
170 1 5 0.967061 0.354777 0.717724 
171 2 5 0.965439 0.366334 0.702629 
172 1 5 0.972263 0.332212 0.702677 
173 2 5 0.988475 0.334461 0.692345 
174 2 5 0.974449 0.315192 0.711295 
175 2 5 0.958562 0.328746 0.690089 
176 1 5 0.953658 0.390281 0.761561 
177 2 5 0.947066 0.378844 0.774489 
178 2 5 0.973233 0.392837 0.762435 
179 2 5 0.949485 0.4077 0.766654 
180 1 5 0.940881 0.384583 0.737895 
181 2 5 0.922855 0.387391 0.741232 
182 1 5 0.94966 0.405023 0.721843 
183 2 5 0.968225 0.39998 0.717807 
184 2 5 0.942999 0.407213 0.704319 
185 2 5 0.947414 0.422719 0.727271 
186 1 5 0.895705 0.361727 0.716602 
187 2 5 0.892458 0.360522 0.735581 
188 2 5 0.890681 0.38007 0.711817 
189 2 5 0.88333 0.349347 0.709789 
190 1 5 0.921615 0.35397 0.709383 
191 2 5 0.919948 0.333696 0.707008 
192 1 5 0.925118 0.364352 0.684527 
193 2 5 0.910372 0.361619 0.674675 
194 2 5 0.927345 0.382891 0.683446 
195 2 5 0.939724 0.355135 0.676406 
196 1 5 0.919017 0.342216 0.766489 
197 2 5 0.912409 0.360072 0.766399 
198 2 5 0.904296 0.333311 0.757495 
199 2 5 0.918958 0.334919 0.784868 
200 1 5 0.939904 0.33897 0.749958 
201 2 5 0.953444 0.34367 0.761524 
202 1 5 0.943887 0.312733 0.74553 
203 2 5 0.96263 0.308782 0.744429 
204 2 5 0.936572 0.303908 0.760411 
205 2 5 0.935491 0.30465 0.728827 
206 3 6 0.890583 0.847049 0.518604 
207 1 6 0.902057 0.8672 0.559428 
208 2 6 0.916308 0.867291 0.571673 
209 2 6 0.901938 0.884505 0.550829 
210 2 6 0.88692 0.866259 0.570888 
211 1 6 0.906725 0.847172 0.541406 
212 2 6 0.923202 0.852094 0.533711 
213 1 6 0.91184 0.823276 0.553856 
214 2 6 0.896692 0.812731 0.557481 
215 2 6 0.92264 0.812234 0.54257 
216 2 6 0.920262 0.827763 0.569746 
217 1 6 0.886536 0.873077 0.478766 
218 2 6 0.899778 0.863828 0.467868 
219 2 6 0.868884 0.866163 0.473293 
220 2 6 0.887411 0.891929 0.471046 
221 1 6 0.890457 0.87231 0.50581 
222 2 6 0.908367 0.879061 0.507022 
223 1 6 0.87469 0.891166 0.514863 
224 2 6 0.881141 0.908943 0.511323 
225 2 6 0.856954 0.8893 0.507293 
226 2 6 0.870227 0.89128 0.53302 
227 1 6 0.92815 0.832707 0.495571 
228 2 6 0.931929 0.822143 0.480686 
229 2 6 0.931672 0.850944 0.492226 
230 2 6 0.939298 0.826175 0.508356 
231 1 6 0.901852 0.827667 0.500863 
232 2 6 0.89274 0.831692 0.484088 
233 1 6 0.898805 0.801063 0.503332 
234 2 6 0.912401 0.791954 0.494773 
235 2 6 0.897476 0.795146 0.521166 
236 2 6 0.883074 0.795475 0.494821 
237 1 6 0.849887 0.846419 0.545248 
238 2 6 0.848388 0.865917 0.543332 
239 2 6 0.834387 0.835435 0.545353 
240 2 6 0.858775 0.84406 0.562117 
241 1 6 0.864711 0.838418 0.524191 
242 2 6 0.868783 0.820958 0.530843 
243 1 6 0.849119 0.835341 0.502613 
244 2 6 0.833365 0.826414 0.506129 
245 2 6 0.842526 0.851206 0.495053 
246 2 6 0.856474 0.82319 0.488921 
247 3 7 0.862799 0.464848 0.128755 
248 1 7 0.818451 0.454965 0.117542 
249 2 7 0.807823 0.448495 0.104443 
250 2 7 0.816771 0.44069 0.130687 
251 2 7 0.809895 0.471598 0.124386 
252 1 7 0.843606 0.459347 0.109929 
253 2 7 0.847871 0.442711 0.102666 
254 1 7 0.842031 0.475508 0.0879462 
255 2 7 0.857846 0.475168 0.0769769 
256 2 7 0.829847 0.467796 0.076241 
257 2 7 0.835631 0.492857 0.0909607 
258 1 7 0.856113 0.511099 0.129241 
259 2 7 0.861072 0.52604 0.138971 
260 2 7 0.864328 0.509704 0.112453 
261 2 7 0.839011 0.514834 0.123003 
262 1 7 0.857902 0.487848 0.143693 
263 2 7 0.873738 0.489896 0.152595 
264 1 7 0.837912 0.487193 0.163226 
265 2 7 0.820211 0.48211 0.159299 
266 2 7 0.840934 0.474475 0.177009 
267 2 7 0.837503 0.505733 0.170466 
268 1 7 0.864277 0.416848 0.138978 
269 2 7 0.882173 0.411533 0.133965 
270 2 7 0.856146 0.404397 0.152277 
271 2 7 0.853302 0.413134 0.124446 
272 1 7 0.863258 0.443038 0.14629 
273 2 7 0.845673 0.443366 0.154704 
274 1 7 0.881152 0.44484 0.166498 
275 2 7 0.883342 0.462246 0.174843 
276 2 7 0.874109 0.435573 0.180719 
277 2 7 0.899126 0.438668 0.163126 
278 1 7 0.90875 0.47409 0.129021 
279 2 7 0.906311 0.489617 0.139196 
280 2 7 0.914722 0.46176 0.141209 
281 2 7 0.923069 0.477635 0.116243 
282 1 7 0.886625 0.466815 0.114915 
283 2 7 0.886672 0.481244 0.104149 
284 1 7 0.894038 0.445628 0.0997918 
285 2 7 0.880309 0.440896 0.0881464 
286 2 7 0.908491 0.449043 0.0866988 
287 2 7 0.899658 0.430289 0.108 
288 3 8 0.559936 0.648094 0.911762 
289 1 8 0.516912 0.664954 0.924629 
290 2 8 0.499145 0.659307 0.928724 
291 2 8 0.523505 0.674584 0.938811 
292 2 8 0.512526 0.677856 0.911369 
293 1 8 0.532325 0.644047 0.914326 
294 2 8 0.53052 0.629697 0.925166 
295 1 8 0.519644 0.635202 0.891805 
296 2 8 0.500917 0.640072 0.894249 
297 2 8 0.526513 0.644932 0.877157 
298 2 8 0.519212 0.616258 0.89 
299 1 8 0.561299 0.695591 0.908765 
300 2 8 0.575937 0.702796 0.918486 
301 2 8 0.557993 0.709003 0.896165 
302 2 8 0.547482 0.696833 0.921646 
303 1 8 0.565829 0.672032 0.896302 
304 2 8 0.554624 0.673192 0.881329 
305 1 8 0.589057 0.674846 0.88477 
306 2 8 0.593776 0.660252 0.873461 
307 2 8 0.588598 0.691423 0.874484 
308 2 8 0.603839 0.678436 0.896207 
309 1 8 0.560796 0.636386 0.955628 
310 2 8 0.569806 0.639273 0.972173 
311 2 8 0.543433 0.641025 0.959636 
312 2 8 0.56078 0.618317 0.952514 
313 1 8 0.572171 0.651859 0.93701 
314 2 8 0.570148 0.669323 0.942901 
315 1 8 0.599681 0.645561 0.939712 
316 2 8 0.611777 0.653182 0.927044 
317 2 8 0.608207 0.652191 0.957241 
318 2 8 0.601667 0.627607 0.938332 
319 1 8 0.568357 0.600554 0.911582 
320 2 8 0.579249 0.598928 0.927465 
321 2 8 0.550237 0.598302 0.916541 
322 2 8 0.572692 0.58618 0.90006 
323 1 8 0.571012 0.625709 0.899602 
324 2 8 0.5898 0.629002 0.900945 
325 1 8 0.56525 0.624014 0.872672 
326 2 8 0.553791 0.610137 0.86797 
327 2 8 0.558997 0.64055 0.864726 
328 2 8 0.582576 0.619466 0.864618 
329 3 9 0.232903 0.489051 0.552347 
330 1 9 0.263428 0.519706 0.569391 
331 2 9 0.280617 0.52012 0.577914 
332 2 9 0.264952 0.529063 0.552982 
333 2 9 0.249666 0.527401 0.581405 
334 1 9 0.257756 0.494227 0.564569 
335 2 9 0.26921 0.488301 0.549706 
336 1 9 0.268799 0.477379 0.583158 
337 2 9 0.288389 0.480554 0.584279 
338 2 9 0.262263 0.482434 0.599684 
339 2 9 0.264886 0.45778 0.580729 
340 1 9 0.225942 0.523261 0.519254 
341 2 9 0.228389 0.527109 0.500675 
342 2 9 0.206886 0.526724 0.521311 
343 2 9 0.238295 0.535691 0.527317 
344 1 9 0.23364 0.498351 0.525647 
345 2 9 0.21835 0.489547 0.518072 
346 1 9 0.254054 0.49008 0.510215 
347 2 9 0.253991 0.497645 0.493072 
348 2 9 0.270355 0.498052 0.516181 
349 2 9 0.258041 0.472087 0.513363 
350 1 9 0.22158 0.449239 0.577511 
351 2 9 0.20173 0.448656 0.578734 
352 2 9 0.227548 0.430161 0.578 
353 2 9 0.228371 0.458351 0.592418 
354 1 9 0.227976 0.461342 0.553598 
355 2 9 0.243687 0.453371 0.548881 
356 1 9 0.213301 0.450839 0.533803 
357 2 9 0.223677 0.452029 0.517321 
358 2 9 0.209386 0.431796 0.537196 
359 2 9 0.195657 0.458481 0.533582 
360 1 9 0.186877 0.499839 0.557135 
361 2 9 0.177489 0.483049 0.560652 
362 2 9 0.174511 0.512499 0.562971 
363 2 9 0.185811 0.499306 0.537589 
364 1 9 0.213121 0.503433 0.564515 
365 2 9 0.218335 0.521348 0.56091 
366 1 9 0.212465 0.501713 0.591301 
367 2 9 0.206406 0.485365 0.59665 
368 2 9 0.229437 0.50257 0.599136 
369 2 9 0.202024 0.514094 0.60144 
370 3 10 0.138017 0.173743 0.985714 
371 1 10 0.119759 0.206371 0.955486 
372 2 10 0.12943 0.204584 0.93901 
373 2 10 0.10205 0.212342 0.952149 
374 2 10 0.128398 0.220321 0.964298 
375 1 10 0.117077 0.182334 0.969698 
376 2 10 0.103487 0.18817 0.982181 
377 1 10 0.104355 0.163926 0.954596 
378 2 10 0.0886609 0.171099 0.946821 
379 2 10 0.115453 0.159906 0.940138 
380 2 10 0.0959608 0.148692 0.963432 
381 1 10 0.159824 0.154808 0.947998 
382 2 10 0.150879 0.164213 0.935071 
383 2 10 0.177601 0.150001 0.942369 
384 2 10 0.149687 0.139864 0.950241 
385 1 10 0.161313 0.170763 0.970421 
386 2 10 0.172868 0.16183 0.981958 
387 1 10 0.174849 0.191667 0.961623 
388 2 10 0.179318 0.204727 0.974094 
389 2 10 0.191733 0.189856 0.950886 
390 2 10 0.163087 0.20047 0.950221 
391 1 10 0.124296 0.200814 0.0233417 
392 2 10 0.130877 0.216266 0.0326184 
393 2 10 0.109427 0.208109 0.014084 
394 2 10 0.118498 0.187966 0.0356239 
395 1 10 0.143107 0.192632 0.00593523 
396 2 10 0.147729 0.208526 0.996736 
397 1 10 0.1636 0.18843 0.0225238 
398 2 10 0.168638 0.201979 0.0351329 
399 2 10 0.160789 0.173772 0.0346263 
400 2 10 0.178693 0.184385 0.0125885 
401 1 10 0.15122 0.132304 0.0059248 
402 2 10 0.161947 0.128978 0.990922 
403 2 10 0.163118 0.140818 0.0186251 
404 2 10 0.143814 0.115864 0.013515 
405 1 10 0.131149 0.148366 0.996598 
406 2 10 0.127951 0.138028 0.981245 
407 1 10 0.109657 0.145634 0.0137847 
408 2 10 0.115308 0.153745 0.0305843 
409 2 10 0.0942915 0.155697 0.00895429 
410 2 10 0.105161 0.127685 0.0156812 
411 3 11 0.765825 0.839848 0.60481 
412 1 11 0.781873 0.872493 0.57359 
413 2 11 0.785876 0.873509 0.555614 
414 2 11 0.76894 0.88654 0.573836 
415 2 11 0.797226 0.875887 0.583997 
416 1 11 0.770177 0.848193 0.577869 
417 2 11 0.752528 0.852446 0.571475 
418 1 11 0.777221 0.829796 0.559506 
419 2 11 0.780463 0.81378 0.569834 
420 2 11 0.762591 0.826452 0.548117 
421 2 11 0.792507 0.836631 0.548747 
422 1 11 0.788995 0.828596 0.643492 
423 2 11 0.807202 0.832009 0.651004 
424 2 11 0.774605 0.837297 0.652283 
425 2 11 0.787778 0.809907 0.646348 
426 1 11 0.790686 0.83567 0.61732 
427 2 11 0.799563 0.852109 0.616622 
428 1 11 0.809183 0.822167 0.602802 
429 2 11 0.826761 0.821687 0.609653 
430 2 11 0.806196 0.803093 0.601905 
431 2 11 0.812971 0.828242 0.585392 
432 1 11 0.734184 0.858246 0.635151 
433 2 11 0.72524 0.875041 0.639519 
434 2 11 0.718842 0.848681 0.627899 
435 2 11 0.739557 0.849532 0.650184 
436 1 11 0.753751 0.862644 0.617018 
437 2 11 0.743487 0.873451 0.604975 
438 1 11 0.76903 0.881391 0.629539 
439 2 11 0.77713 0.875229 0.644906 
440 2 11 0.782771 0.888367 0.618878 
441 2 11 0.758967 0.896784 0.635443 
442 1 11 0.725379 0.818656 0.591502 
443 2 11 0.731112 0.819264 0.572707 
444 2 11 0.714684 0.803264 0.593648 
445 2 11 0.715147 0.834989 0.592908 
446 1 11 0.747859 0.817761 0.607395 
447 2 11 0.742996 0.818197 0.625965 
448 1 11 0.75945 0.793086 0.603261 
449 2 11 0.744754 0.781209 0.607857 
450 2 11 0.764012 0.788024 0.58477 
451 2 11 0.77465 0.789687 0.613957 
452 3 12 0.800508 0.570334 0.332992 
453 1 12 0.825352 0.562322 0.372437 
454 2 12 0.84033 0.569137 0.362564 
455 2 12 0.815372 0.574584 0.38129 
456 2 12 0.831395 0.550151 0.385686 
457 1 12 0.806751 0.553627 0.355592 
458 2 12 0.815101 0.539346 0.34603 
459 1 12 0.786948 0.542113 0.369297 
460 2 12 0.772583 0.553133 0.374866 
461 2 12 0.778114 0.530253 0.357561 
462 2 12 0.792024 0.533047 0.384429 
463 1 12 0.768807 0.572631 0.298396 
464 2 12 0.753431 0.582925 0.304814 
465 2 12 0.779953 0.58543 0.289255 
466 2 12 0.760776 0.562646 0.284668 
467 1 12 0.78074 0.557593 0.317772 
468 2 12 0.765639 0.552191 0.328714 
469 1 12 0.789505 0.535508 0.303741 
470 2 12 0.800334 0.539727 0.288931 
471 2 12 0.800131 0.522547 0.313577 
472 2 12 0.77462 0.524831 0.2961 
473 1 12 0.767789 0.594567 0.356009 
474 2 12 0.759794 0.611262 0.359144 
475 2 12 0.753984 0.584331 0.346581 
476 2 12 0.771075 0.587831 0.373532 
477 1 12 0.789751 0.595171 0.340273 
478 2 12 0.785634 0.602993 0.323297 
479 1 12 0.80607 0.614657 0.350967 
480 2 12 0.815234 0.607124 0.366135 
481 2 12 0.819086 0.622462 0.338965 
482 2 12 0.797849 0.631834 0.357551 
483 1 12 0.841049 0.553559 0.316165 
484 2 12 0.855669 0.558862 0.306471 
485 2 12 0.848437 0.547034 0.33308 
486 2 12 0.833621 0.538229 0.307361 
487 1 12 0.823717 0.57455 0.318154 
488 2 12 0.834915 0.58783 0.327538 
489 1 12 0.825124 0.587212 0.294287 
490 2 12 0.817029 0.604811 0.295777 
491 2 12 0.842927 0.589241 0.288648 
492 2 12 0.817728 0.577091 0.279803 
493 3 13 0.161304 0.214434 0.865588 
494 1 13 0.165173 0.179252 0.833714 
495 2 13 0.15435 0.165601 0.826534 
496 2 13 0.167055 0.19237 0.820939 
497 2 13 0.181497 0.169326 0.838664 
498 1 13 0.150348 0.189514 0.855007 
499 2 13 0.135611 0.196086 0.845006 
500 1 13 0.140413 0.170293 0.870887 
501 2 13 0.137336 0.154849 0.861591 
502 2 13 0.152627 0.165705 0.885115 
503 2 13 0.124905 0.175057 0.878595 
504 1 13 0.155218 0.237748 0.906041 
505 2 13 0.142787 0.245334 0.918995 
506 2 13 0.16785 0.227408 0.916933 
507 2 13 0.162997 0.254533 0.901293 
508 1 13 0.143281 0.223368 0.884767 
509 2 13 0.13434 0.208746 0.894166 
510 1 13 0.121731 0.235723 0.876331 
511 2 13 0.127202 0.253082 0.871285 
512 2 13 0.117146 0.225296 0.862026 
513 2 13 0.107075 0.237035 0.888086 
514 1 13 0.187873 0.190306 0.895473 
515 2 13 0.203221 0.190588 0.907436 
516 2 13 0.172208 0.190764 0.905787 
517 2 13 0.188048 0.173877 0.885177 
518 1 13 0.186246 0.209761 0.877433 
519 2 13 0.190161 0.226064 0.886534 
520 1 13 0.208868 0.208504 0.86187 
521 2 13 0.225313 0.205761 0.871967 
522 2 13 0.20776 0.194529 0.848997 
523 2 13 0.213758 0.222659 0.850301 
524 1 13 0.146379 0.240806 0.825935 
525 2 13 0.138975 0.226196 0.8158 
526 2 13 0.132078 0.251996 0.833846 
527 2 13 0.154651 0.251238 0.812427 
528 1 13 0.165835 0.234107 0.845486 
529 2 13 0.179317 0.225506 0.834303 
530 1 13 0.176974 0.257058 0.852943 
531 2 13 0.18954 0.258198 0.867183 
532 2 13 0.184013 0.266932 0.837445 
533 2 13 0.163197 0.267981 0.85937 
534 3 14 0.976878 0.457323 0.615253 
535 1 14 0.00124937 0.48861 0.590817 
536 2 14 0.003219 0.496745 0.573717 
537 2 14 0.99652 0.503007 0.602014 
538 2 14 0.019623 0.484836 0.595887 
539 1 14 0.983784 0.468539 0.59176 
540 2 14 0.967325 0.476246 0.585262 
541 1 14 0.991211 0.451702 0.570957 
542 2 14 0.984899 0.433923 0.570856 
543 2 14 0.988039 0.458404 0.553702 
544 2 14 0.0108209 0.451042 0.570726 
545 1 14 0.944582 0.491145 0.621433 
546 2 14 0.947007 0.497482 0.603767 
547 2 14 0.929201 0.47955 0.622506 
548 2 14 0.938166 0.507312 0.629463 
549 1 14 0.966615 0.479441 0.632531 
550 2 14 0.979288 0.492418 0.632553 
551 1 14 0.960742 0.472071 0.658259 
552 2 14 0.941558 0.470284 0.661735 
553 2 14 0.970728 0.457214 0.664536 
554 2 14 0.96246 0.487532 0.668487 
555 1 14 0.943846 0.425505 0.63238 
556 2 14 0.934078 0.409971 0.625772 
557 2 14 0.953252 0.419546 0.647367 
558 2 14 0.931685 0.43879 0.63858 
559 1 14 0.957878 0.437376 0.611206 
560 2 14 0.968766 0.423187 0.60539 
561 1 14 0.939318 0.441939 0.591862 
562 2 14 0.931315 0.459974 0.593687 
563 2 14 0.946267 0.44074 0.574609 
564 2 14 0.924865 0.429245 0.59014 
565 1 14 0.0143864 0.42871 0.613005 
566 2 14 0.026127 0.439645 0.601886 
567 2 14 0.024446 0.41662 0.624998 
568 2 14 0.00358571 0.417764 0.602732 
569 1 14 0.999443 0.445394 0.629194 
570 2 14 0.993231 0.435517 0.643772 
571 1 14 0.0167613 0.459802 0.643653 
572 2 14 0.0118281 0.4648 0.661063 
573 2 14 0.0338001 0.451536 0.645345 
574 2 14 0.0210251 0.475011 0.633591 
575 3 15 0.0869248 0.550578 0.794416 
576 1 15 0.122509 0.58134 0.792972 
577 2 15 0.127969 0.572753 0.807819 
578 2 15 0.136388 0.586144 0.780022 
579 2 15 0.11577 0.598494 0.800406 
580 1 15 0.103067 0.567772 0.779847 
581 2 15 0.0922807 0.581749 0.772469 
582 1 15 0.114624 0.557678 0.757763 
583 2 15 0.114872 0.56963 0.741327 
584 2 15 0.134217 0.556798 0.762085 
585 2 15 0.110884 0.539581 0.752583 
586 1 15 0.0758935 0.587119 0.821892 
587 2 15 0.09015 0.596606 0.827102 
588 2 15 0.070331 0.595499 0.806044 
589 2 15 0.0616731 0.590744 0.833658 
590 1 15 0.0816142 0.561091 0.819833 
591 2 15 0.0985416 0.563277 0.828185 
592 1 15 0.0666195 0.546765 0.837454 
593 2 15 0.0503929 0.539545 0.831686 
594 2 15 0.0743419 0.531829 0.847728 
595 2 15 0.0617111 0.559669 0.850019 
596 1 15 0.046505 0.567947 0.777645 
597 2 15 0.0553349 0.580275 0.766392 
598 2 15 0.0302848 0.561946 0.76973 
599 2 15 0.0402751 0.577456 0.793801 
600 1 15 0.0620009 0.545804 0.781884 
601 2 15 0.0527842 0.532731 0.79333 
602 1 15 0.0631214 0.531724 0.75711 
603 2 15 0.0457743 0.528613 0.75154 
604 2 15 0.0736361 0.540375 0.744367 
605 2 15 0.0724035 0.515409 0.760444 
606 1 15 0.124534 0.526588 0.807472 
607 2 15 0.123765 0.533775 0.825387 
608 2 15 0.132909 0.509858 0.809437 
609 2 15 0.136214 0.536042 0.795888 
610 1 15 0.100246 0.524928 0.799387 
611 2 15 0.103408 0.517565 0.782367 
612 1 15 0.0865787 0.506343 0.813167 
613 2 15 0.0939749 0.488313 0.807134 
614 2 15 0.0885045 0.506166 0.832054 
615 2 15 0.0677732 0.505624 0.81001 
616 3 16 0.0952251 0.660583 0.736044 
617 1 16 0.0487121 0.649065 0.739719 
618 2 16 0.0409614 0.658881 0.725919 
619 2 16 0.0367017 0.633882 0.744137 
620 2 16 0.0491373 0.661764 0.753878 
621 1 16 0.0751095 0.641895 0.732464 
622 2 16 0.0780775 0.630029 0.7463 
623 1 16 0.0761827 0.626227 0.709839 
624 2 16 0.0803546 0.635144 0.693652 
625 2 16 0.0888778 0.612091 0.712837 
626 2 16 0.0586041 0.616989 0.707182 
627 1 16 0.0882934 0.683332 0.695082 
628 2 16 0.0702948 0.679659 0.689741 
629 2 16 0.0947381 0.700702 0.687992 
630 2 16 0.0994776 0.671375 0.686911 
631 1 16 0.0906883 0.683848 0.721976 
632 2 16 0.105173 0.695483 0.725939 
633 1 16 0.0710193 0.702819 0.729532 
634 2 16 0.0541813 0.693431 0.727955 
635 2 16 0.0751831 0.708925 0.747216 
636 2 16 0.0691019 0.717383 0.717821 
637 1 16 0.0929408 0.649387 0.781803 
638 2 16 0.0948496 0.657713 0.798464 
639 2 16 0.0749528 0.64193 0.784422 
640 2 16 0.103948 0.634821 0.778738 
641 1 16 0.095299 0.667202 0.762874 
642 2 16 0.0783511 0.675135 0.766473 
643 1 16 0.114803 0.685283 0.771649 
644 2 16 0.113438 0.688666 0.78938 
645 2 16 0.132119 0.676615 0.770062 
646 2 16 0.116321 0.702978 0.766463 
647 1 16 0.140881 0.669141 0.721899 
648 2 16 0.156535 0.660415 0.71737 
649 2 16 0.137072 0.677572 0.7036 
650 2 16 0.143675 0.682307 0.735718 
651 1 16 0.120818 0.651005 0.728245 
652 2 16 0.12026 0.640182 0.712006 
653 1 16 0.132578 0.632971 0.743922 
654 2 16 0.147765 0.624058 0.734921 
655 2 16 0.137563 0.638805 0.761115 
656 2 16 0.119335 0.619307 0.747719 
657 3 17 0.517672 0.496275 0.829899 
658 1 17 0.530113 0.517008 0.870679 
659 2 17 0.526778 0.517661 0.889819 
660 2 17 0.547073 0.507964 0.868151 
661 2 17 0.531661 0.535139 0.863385 
662 1 17 0.510104 0.504875 0.855161 
663 2 17 0.505727 0.490669 0.866191 
664 1 17 0.487709 0.519933 0.860508 
665 2 17 0.487843 0.537111 0.852002 
666 2 17 0.47151 0.512074 0.85228 
667 2 17 0.484559 0.520859 0.87848 
668 1 17 0.478258 0.468957 0.827832 
669 2 17 0.486253 0.452025 0.829172 
670 2 17 0.47617 0.47372 0.847946 
671 2 17 0.463536 0.468335 0.817607 
672 1 17 0.494694 0.487307 0.816342 
673 2 17 0.499779 0.479269 0.799711 
674 1 17 0.47817 0.50733 0.807227 
675 2 17 0.486143 0.524124 0.804011 
676 2 17 0.473022 0.500656 0.78969 
677 2 17 0.46256 0.508586 0.816153 
678 1 17 0.55467 0.525762 0.820892 
679 2 17 0.555568 0.543899 0.814297 
680 2 17 0.561032 0.526854 0.838919 
681 2 17 0.56886 0.514838 0.813601 
682 1 17 0.529045 0.517739 0.815635 
683 2 17 0.519362 0.5328 0.820279 
684 1 17 0.528267 0.516707 0.788687 
685 2 17 0.543924 0.507829 0.782002 
686 2 17 0.514946 0.505714 0.780007 
687 2 17 0.525625 0.5339 0.779985 
688 1 17 0.532215 0.456764 0.850222 
689 2 17 0.518714 0.444693 0.843724 
690 2 17 0.547887 0.444832 0.851387 
691 2 17 0.527642 0.463787 0.867437 
692 1 17 0.537957 0.476312 0.831484 
693 2 17 0.553824 0.485223 0.838219 
694 1 17 0.545095 0.462626 0.810017 
695 2 17 0.554929 0.474009 0.797156 
696 2 17 0.556878 0.44783 0.812735 
697 2 17 0.529744 0.456617 0.79986 
698 3 18 0.641521 0.936393 0.251488 
699 1 18 0.687437 0.939146 0.257015 
700 2 18 0.700235 0.950133 0.264426 
701 2 18 0.687292 0.923862 0.26903 
702 2 18 0.693667 0.935516 0.239352 
703 1 18 0.663754 0.951668 0.257935 
704 2 18 0.662628 0.956732 0.276329 
705 1 18 0.665547 0.975261 0.245555 
706 2 18 0.680023 0.984648 0.252395 
707 2 18 0.669858 0.976758 0.227385 
708 2 18 0.650677 0.987113 0.249135 
709 1 18 0.637998 0.918013 0.296154 
710 2 18 0.620311 0.921075 0.303007 
711 2 18 0.645237 0.902198 0.306163 
712 2 18 0.649396 0.932593 0.302049 
713 1 18 0.639477 0.913051 0.269036 
714 2 18 0.656069 0.904108 0.266723 
715 1 18 0.621545 0.893019 0.26445 
716 2 18 0.608198 0.893188 0.2781 
717 2 18 0.613631 0.894108 0.246381 
718 2 18 0.632437 0.877004 0.269379 
719 1 18 0.61706 0.96676 0.278935 
720 2 18 0.597972 0.968234 0.284129 
721 2 18 0.628136 0.961877 0.294843 
722 2 18 0.625266 0.982934 0.274954 
723 1 18 0.617332 0.949542 0.257148 
724 2 18 0.605103 0.936263 0.262231 
725 1 18 0.60417 0.962476 0.23816 
726 2 18 0.587848 0.969305 0.24374 
727 2 18 0.614676 0.975986 0.228756 
728 2 18 0.600673 0.95268 0.221968 
729 1 18 0.648072 0.94513 0.204833 
730 2 18 0.643529 0.93807 0.188451 
731 2 18 0.639547 0.961191 0.205545 
732 2 18 0.666813 0.948139 0.204865 
733 1 18 0.642277 0.927064 0.224892 
734 2 18 0.622861 0.92319 0.22118 
735 1 18 0.655514 0.904602 0.2194 
736 2 18 0.675381 0.903326 0.221916 
737 2 18 0.649649 0.891783 0.231965 
738 2 18 0.649821 0.89775 0.202887 
739 3 19 0.519124 0.707066 0.024064 
740 1 19 0.538152 0.705187 0.981228 
741 2 19 0.556933 0.710138 0.985333 
742 2 19 0.537365 0.685907 0.983658 
743 2 19 0.53595 0.709205 0.963834 
744 1 19 0.522758 0.718505 0.998851 
745 2 19 0.532907 0.73472 -0.000101404 
746 1 19 0.49891 0.725465 0.986508 
747 2 19 0.489458 0.71117 0.977953 
748 2 19 0.487383 0.734913 0.996742 
749 2 19 0.500727 0.735775 0.9703 
750 1 19 0.474352 0.688452 0.0287818 
751 2 19 0.463913 0.671445 0.0303217 
752 2 19 0.469201 0.696113 0.0458438 
753 2 19 0.466269 0.695717 0.013073 
754 1 19 0.501667 0.684062 0.0249321 
755 2 19 0.50612 0.674189 0.0405035 
756 1 19 0.505634 0.665198 0.00551767 
757 2 19 0.521857 0.654454 0.00691009 
758 2 19 0.49049 0.652178 0.00675842 
759 2 19 0.505475 0.671922 0.987674 
760 1 19 0.555617 0.676614 0.0321427 
761 2 19 0.544702 0.662326 0.0364572 
762 2 19 0.561091 0.675373 0.0144057 
763 2 19 0.571681 0.673868 0.0423394 
764 1 19 0.544036 0.700143 0.0366338 
765 2 19 0.536254 0.697178 0.0538959 
766 1 19 0.56223 0.720807 0.0390987 
767 2 19 0.559282 0.733427 0.0529187 
768 2 19 0.579855 0.715097 0.044253 
769 2 19 0.566563 0.730594 0.0237674 
770 1 19 0.504836 0.721866 0.066458 
771 2 19 0.492022 0.73404 0.0748643 
772 2 19 0.500376 0.703644 0.0709479 
773 2 19 0.519798 0.724923 0.0768745 
774 1 19 0.507493 0.726416 0.0392983 
775 2 19 0.489197 0.727841 0.0337923 
776 1 19 0.514847 0.751557 0.0365066 
777 2 19 0.507576 0.765231 0.0470873 
778 2 19 0.534076 0.754513 0.0388036 
779 2 19 0.510773 0.758729 0.0188725 
780 3 20 0.895182 0.994091 0.475929 
781 1 20 0.88327 0.0403642 0.473113 
782 2 20 0.903005 0.0444085 0.474212 
783 2 20 0.880477 0.0410738 0.454818 
784 2 20 0.872711 0.0538498 0.482347 
785 1 20 0.877539 0.0153029 0.479556 
786 2 20 0.876646 0.0160084 0.499264 
787 1 20 0.852465 0.0111791 0.471651 
788 2 20 0.848878 0.0102088 0.451826 
789 2 20 0.84536 0.995614 0.478574 
790 2 20 0.841822 0.0247475 0.478369 
791 1 20 0.888016 0.994875 0.429384 
792 2 20 0.878642 0.0111609 0.430336 
793 2 20 0.897702 0.992151 0.413735 
794 2 20 0.87518 0.9818 0.429398 
795 1 20 0.905254 0.995148 0.450331 
796 2 20 0.916031 0.978467 0.448212 
797 1 20 0.920887 0.0153425 0.443454 
798 2 20 0.913032 0.03121 0.437116 
799 2 20 0.932463 0.0205251 0.457632 
800 2 20 0.93315 0.00806275 0.430197 
801 1 20 0.911386 0.993803 0.519747 
802 2 20 0.910882 0.974752 0.523005 
803 2 20 0.925064 0.00336376 0.529405 
804 2 20 0.894874 -0.00138317 0.525384 
805 1 20 0.916851 0.998233 0.494206 
806 2 20 0.920912 0.0165503 0.494326 
807 1 20 0.94026 0.985734 0.488772 
808 2 20 0.938332 0.966464 0.49137 
809 2 20 0.945867 0.988196 0.470661 
810 2 20 0.954288 0.991421 0.500699 
811 1 20 0.89662 0.947754 0.477179 
812 2 20 0.910407 0.943265 0.489848 
813 2 20 0.88604 0.932885 0.474516 
814 2 20 0.904706 0.946232 0.459596 
815 1 20 0.881785 0.970101 0.480939 
816 2 20 0.87119 0.968239 0.466154 
817 1 20 0.869503 0.966123 0.504537 
818 2 20 0.853116 0.955741 0.503436 