ITEM: TIMESTEP
40000000
ITEM: NUMBER OF ATOMS
26000
ITEM: BOX BOUNDS pp pp pp
1.1842014307742155e-01 6.4612236773644923e+01
1.1842014307742155e-01 6.4612236773644923e+01
1.1842014307742155e-01 6.4612236773644923e+01
ITEM: ATOMS id type mol xs ys zs 
1 1 1 0.180252 0.712758 0.507571 
2 2 1 0.174105 0.701514 0.495992 
3 2 1 0.191911 0.720594 0.499702 
4 2 1 0.169057 0.725597 0.509036 
5 1 1 0.190204 0.703017 0.527084 
6 2 1 0.176644 0.698724 0.536682 
7 2 1 0.198988 0.714973 0.535878 
8 1 1 0.202924 0.683711 0.522298 
9 2 1 0.192475 0.672883 0.513897 
10 1 1 0.206707 0.670995 0.542212 
11 2 1 0.191174 0.668111 0.549012 
12 2 1 0.216216 0.680145 0.55265 
13 1 1 0.218551 0.651236 0.539636 
14 2 1 0.234437 0.653723 0.535324 
15 2 1 0.211589 0.64081 0.528228 
16 1 1 0.219597 0.640058 0.560433 
17 2 1 0.204509 0.641946 0.566651 
18 2 1 0.225984 0.625069 0.558399 
19 2 1 0.230008 0.649622 0.569725 
20 1 1 0.223155 0.687937 0.509402 
21 2 1 0.23241 0.674389 0.504981 
22 2 1 0.21571 0.694492 0.496332 
23 1 1 0.2384 0.704206 0.518191 
24 2 1 0.254312 0.70347 0.513557 
25 2 1 0.237734 0.7026 0.534961 
26 2 1 0.232443 0.719722 0.515421 
27 1 2 0.830997 0.82873 0.33101 
28 2 2 0.821345 0.818973 0.320007 
29 2 2 0.842593 0.816883 0.337398 
30 2 2 0.841168 0.838482 0.321437 
31 1 2 0.818122 0.840253 0.347892 
32 2 2 0.807388 0.84934 0.339298 
33 2 2 0.826817 0.852685 0.354266 
34 1 2 0.805608 0.826911 0.363685 
35 2 2 0.79697 0.837354 0.373708 
36 1 2 0.81955 0.816298 0.379661 
37 2 2 0.826046 0.827401 0.388148 
38 2 2 0.832237 0.80953 0.370122 
39 1 2 0.809621 0.800164 0.394865 
40 2 2 0.803588 0.786521 0.38612 
41 2 2 0.797091 0.80757 0.402266 
42 1 2 0.826317 0.792579 0.410602 
43 2 2 0.820265 0.783072 0.422463 
44 2 2 0.838663 0.78459 0.403455 
45 2 2 0.832849 0.806238 0.418112 
46 1 2 0.791592 0.810799 0.353817 
47 2 2 0.800829 0.797999 0.348448 
48 2 2 0.780104 0.805399 0.365438 
49 1 2 0.779 0.817915 0.334346 
50 2 2 0.785967 0.829971 0.324672 
51 2 2 0.764417 0.824856 0.337881 
52 2 2 0.772627 0.805178 0.325067 
53 1 3 0.148228 0.430258 0.737935 
54 2 3 0.133811 0.438351 0.739619 
55 2 3 0.155614 0.427599 0.75317 
56 2 3 0.146402 0.414033 0.73289 
57 1 3 0.161855 0.443819 0.724616 
58 2 3 0.178111 0.440654 0.72556 
59 2 3 0.162195 0.459825 0.730485 
60 1 3 0.154195 0.443759 0.701773 
61 2 3 0.149072 0.428955 0.697338 
62 1 3 0.172404 0.451942 0.688559 
63 2 3 0.185393 0.44119 0.689186 
64 2 3 0.176677 0.466368 0.694892 
65 1 3 0.16661 0.455192 0.664775 
66 2 3 0.160028 0.469996 0.661567 
67 2 3 0.155385 0.442754 0.661091 
68 1 3 0.186047 0.452654 0.651968 
69 2 3 0.194785 0.438951 0.654707 
70 2 3 0.182167 0.454843 0.635825 
71 2 3 0.197018 0.464121 0.659058 
72 1 3 0.134976 0.456016 0.698068 
73 2 3 0.12639 0.454994 0.713231 
74 2 3 0.137327 0.472392 0.696865 
75 1 3 0.119576 0.44997 0.681328 
76 2 3 0.125409 0.453735 0.665026 
77 2 3 0.104688 0.457511 0.682377 
78 2 3 0.117759 0.433929 0.683137 
79 1 4 0.31679 0.354887 0.880148 
80 2 4 0.323789 0.368728 0.875888 
81 2 4 0.302258 0.357072 0.887722 
82 2 4 0.314592 0.346616 0.86579 
83 1 4 0.331857 0.340893 0.891053 
84 2 4 0.338186 0.35048 0.903139 
85 2 4 0.345521 0.339282 0.880381 
86 1 4 0.323716 0.321092 0.900771 
87 2 4 0.314273 0.325427 0.914228 
88 1 4 0.34162 0.307949 0.910712 
89 2 4 0.349983 0.304382 0.897188 
90 2 4 0.334887 0.294127 0.916356 
91 1 4 0.355048 0.319097 0.927551 
92 2 4 0.344736 0.322166 0.941491 
93 2 4 0.35998 0.334184 0.921523 
94 1 4 0.372587 0.304693 0.932905 
95 2 4 0.364944 0.293558 0.944661 
96 2 4 0.379294 0.295805 0.919451 
97 2 4 0.385092 0.313805 0.940345 
98 1 4 0.310172 0.308544 0.885433 
99 2 4 0.295777 0.317094 0.88207 
100 2 4 0.317934 0.305331 0.870405 
101 1 4 0.30468 0.287739 0.893452 
102 2 4 0.300668 0.288342 0.910242 
103 2 4 0.317334 0.276801 0.892907 
104 2 4 0.291574 0.281407 0.885755 
105 1 5 0.900342 0.948057 0.844753 
106 2 5 0.903221 0.932243 0.85291 
107 2 5 0.88813 0.945872 0.832912 
108 2 5 0.892238 0.958504 0.855922 
109 1 5 0.919274 0.957613 0.836013 
110 2 5 0.924003 0.945955 0.8243 
111 2 5 0.933541 0.95948 0.845758 
112 1 5 0.91433 0.97936 0.827068 
113 2 5 0.898179 0.9771 0.822619 
114 1 5 0.924275 0.983489 0.806113 
115 2 5 0.919411 0.969714 0.79723 
116 2 5 0.941419 0.982118 0.808152 
117 1 5 0.916864 0.00299539 0.794029 
118 2 5 0.921754 0.0169432 0.802329 
119 2 5 0.90053 0.00286913 0.793972 
120 1 5 0.924647 0.00404108 0.771149 
121 2 5 0.922677 0.0193249 0.763824 
122 2 5 0.940597 0.00216577 0.771709 
123 2 5 0.919224 0.992188 0.761265 
124 1 5 0.917594 0.9978 0.842922 
125 2 5 0.933501 0.000287086 0.843547 
126 2 5 0.912161 0.0125249 0.837038 
127 1 5 0.909761 0.995838 0.865055 
128 2 5 0.914718 0.0103431 0.872528 
129 2 5 0.917099 0.982909 0.87263 
130 2 5 0.894008 0.993953 0.868399 
131 1 6 0.965201 0.427957 0.645097 
132 2 6 0.96499 0.428213 0.628443 
133 2 6 0.98112 0.432864 0.649753 
134 2 6 0.955274 0.440347 0.649219 
135 1 6 0.956971 0.407524 0.65448 
136 2 6 0.942576 0.403135 0.645803 
137 2 6 0.950741 0.410277 0.669544 
138 1 6 0.974531 0.390666 0.657903 
139 2 6 0.986235 0.394406 0.646764 
140 1 6 0.967357 0.369037 0.65273 
141 2 6 0.956994 0.36531 0.665684 
142 2 6 0.98025 0.358791 0.653717 
143 1 6 0.955814 0.365144 0.631394 
144 2 6 0.964911 0.370143 0.618571 
145 2 6 0.940795 0.373405 0.630993 
146 1 6 0.953494 0.341906 0.627818 
147 2 6 0.943907 0.334092 0.640464 
148 2 6 0.946292 0.340245 0.613411 
149 2 6 0.967768 0.333645 0.627451 
150 1 6 0.984566 0.391022 0.678859 
151 2 6 0.973626 0.390212 0.691629 
152 2 6 0.995293 0.378218 0.680616 
153 1 6 0.997007 0.41021 0.683701 
154 2 6 0.00805295 0.409825 0.696922 
155 2 6 0.986343 0.423024 0.684927 
156 2 6 0.00810775 0.412753 0.67089 
157 1 7 0.204712 0.780791 0.515328 
158 2 7 0.20766 0.797019 0.513084 
159 2 7 0.202468 0.778335 0.532496 
160 2 7 0.189655 0.779022 0.508859 
161 1 7 0.221048 0.765418 0.509562 
162 2 7 0.212049 0.751811 0.512357 
163 2 7 0.233348 0.764946 0.522128 
164 1 7 0.230826 0.768605 0.487876 
165 2 7 0.237749 0.783463 0.485301 
166 1 7 0.213445 0.765672 0.471562 
167 2 7 0.198025 0.766084 0.47719 
168 2 7 0.213276 0.748884 0.466008 
169 1 7 0.216697 0.778525 0.452598 
170 2 7 0.230401 0.773282 0.443914 
171 2 7 0.22075 0.7946 0.457707 
172 1 7 0.196734 0.775711 0.439589 
173 2 7 0.19557 0.78559 0.425248 
174 2 7 0.197464 0.759617 0.433955 
175 2 7 0.183045 0.777643 0.448906 
176 1 7 0.24815 0.752928 0.485485 
177 2 7 0.24273 0.73738 0.490332 
178 2 7 0.25244 0.747942 0.469881 
179 1 7 0.267914 0.759799 0.497187 
180 2 7 0.27977 0.746499 0.499895 
181 2 7 0.264026 0.765761 0.51223 
182 2 7 0.274569 0.773022 0.489967 
183 1 8 0.0606495 0.140589 0.847327 
184 2 8 0.0762575 0.146806 0.849772 
185 2 8 0.0501809 0.145427 0.859377 
186 2 8 0.0567066 0.144041 0.831238 
187 1 8 0.0603147 0.117516 0.848145 
188 2 8 0.0446651 0.112664 0.852058 
189 2 8 0.068987 0.114109 0.861712 
190 1 8 0.0657833 0.104021 0.828732 
191 2 8 0.0540896 0.107563 0.816884 
192 1 8 0.0627763 0.0804458 0.831792 
193 2 8 0.0749154 0.0749334 0.843253 
194 2 8 0.0684557 0.0723563 0.818501 
195 1 8 0.0407971 0.0724242 0.834744 
196 2 8 0.0308309 0.0730689 0.820924 
197 2 8 0.0327732 0.0817025 0.845825 
198 1 8 0.0413143 0.0493435 0.840301 
199 2 8 0.0259672 0.0451402 0.842966 
200 2 8 0.0475892 0.0406584 0.82859 
201 2 8 0.0499754 0.0444162 0.854051 
202 1 8 0.088316 0.109732 0.821577 
203 2 8 0.0925768 0.12625 0.818206 
204 2 8 0.0984538 0.105384 0.834645 
205 1 8 0.0975467 0.0991424 0.802406 
206 2 8 0.11417 0.101989 0.799096 
207 2 8 0.0885445 0.102401 0.789623 
208 2 8 0.0966374 0.0826057 0.804237 
209 1 9 0.20114 0.548762 0.136194 
210 2 9 0.187142 0.547608 0.146014 
211 2 9 0.198237 0.554799 0.121569 
212 2 9 0.211613 0.559488 0.143688 
213 1 9 0.213315 0.527886 0.133387 
214 2 9 0.224587 0.530275 0.120254 
215 2 9 0.203358 0.516308 0.127088 
216 1 9 0.223239 0.518318 0.15393 
217 2 9 0.226887 0.502579 0.149258 
218 1 9 0.205843 0.517126 0.170238 
219 2 9 0.190484 0.511338 0.164482 
220 2 9 0.200949 0.53194 0.176705 
221 1 9 0.209909 0.503357 0.189309 
222 2 9 0.225053 0.507921 0.197646 
223 2 9 0.213054 0.48857 0.183067 
224 1 9 0.192449 0.502623 0.205141 
225 2 9 0.195817 0.491676 0.218443 
226 2 9 0.189095 0.517807 0.211061 
227 2 9 0.178919 0.495694 0.198675 
228 1 9 0.243283 0.529804 0.161395 
229 2 9 0.243132 0.545547 0.154361 
230 2 9 0.240966 0.532523 0.176966 
231 1 9 0.26388 0.518069 0.158261 
232 2 9 0.264417 0.513416 0.142299 
233 2 9 0.264167 0.502271 0.16594 
234 2 9 0.277552 0.527504 0.160469 
235 1 10 0.26785 0.7981 0.624055 
236 2 10 0.281186 0.790236 0.617047 
237 2 10 0.253271 0.789674 0.621499 
238 2 10 0.268446 0.795789 0.640414 
239 1 10 0.264511 0.820247 0.614354 
240 2 10 0.253106 0.8274 0.625653 
241 2 10 0.255286 0.818997 0.600399 
242 1 10 0.284271 0.834318 0.613653 
243 2 10 0.295016 0.826837 0.603054 
244 1 10 0.293802 0.836132 0.635897 
245 2 10 0.29436 0.821012 0.644097 
246 2 10 0.283873 0.845868 0.645974 
247 1 10 0.316364 0.842853 0.634854 
248 2 10 0.316923 0.858265 0.628454 
249 2 10 0.325239 0.833434 0.625585 
250 1 10 0.326795 0.845504 0.655756 
251 2 10 0.327433 0.829675 0.66279 
252 2 10 0.34233 0.851111 0.652922 
253 2 10 0.318868 0.854627 0.666945 
254 1 10 0.279304 0.856377 0.605354 
255 2 10 0.266677 0.864357 0.613403 
256 2 10 0.292881 0.865681 0.607032 
257 1 10 0.275209 0.856101 0.581863 
258 2 10 0.260073 0.848592 0.579513 
259 2 10 0.287647 0.84752 0.57444 
260 2 10 0.27441 0.872298 0.574903 
261 1 11 0.97052 0.78369 0.969885 
262 2 11 0.97342 0.79896 0.962533 
263 2 11 0.982638 0.772792 0.964532 
264 2 11 0.968758 0.784457 0.987003 
265 1 11 0.949022 0.777337 0.961752 
266 2 11 0.937655 0.787311 0.968015 
267 2 11 0.944372 0.762438 0.968895 
268 1 11 0.9469 0.777546 0.938289 
269 2 11 0.956391 0.790529 0.934045 
270 1 11 0.92478 0.779737 0.931221 
271 2 11 0.91573 0.767792 0.939001 
272 2 11 0.925437 0.777194 0.914154 
273 1 11 0.914707 0.802259 0.935404 
274 2 11 0.92481 0.813716 0.930132 
275 2 11 0.916186 0.806598 0.951907 
276 1 11 0.893955 0.805182 0.925714 
277 2 11 0.886971 0.819916 0.929142 
278 2 11 0.892339 0.804872 0.908645 
279 2 11 0.88213 0.79395 0.932349 
280 1 11 0.957739 0.758936 0.928558 
281 2 11 0.972281 0.755124 0.937361 
282 2 11 0.950205 0.74468 0.929643 
283 1 11 0.962987 0.762106 0.906392 
284 2 11 0.971054 0.750411 0.89799 
285 2 11 0.973632 0.775001 0.902984 
286 2 11 0.949108 0.763362 0.898345 
287 1 12 0.107555 0.563296 0.547159 
288 2 12 0.109513 0.568304 0.531632 
289 2 12 0.120009 0.568499 0.557292 
290 2 12 0.0937222 0.570649 0.55245 
291 1 12 0.10562 0.538782 0.547676 
292 2 12 0.0910377 0.53642 0.538555 
293 2 12 0.101527 0.532776 0.563347 
294 1 12 0.122822 0.527986 0.535101 
295 2 12 0.124525 0.535502 0.520857 
296 1 12 0.115747 0.505624 0.530678 
297 2 12 0.100557 0.507063 0.525472 
298 2 12 0.115486 0.497953 0.545844 
299 1 12 0.127908 0.49623 0.513298 
300 2 12 0.143928 0.498303 0.516978 
301 2 12 0.125795 0.504587 0.499345 
302 1 12 0.122544 0.473826 0.509204 
303 2 12 0.126982 0.46818 0.494393 
304 2 12 0.131182 0.463414 0.51937 
305 2 12 0.106683 0.468475 0.511772 
306 1 12 0.143254 0.528154 0.548786 
307 2 12 0.142807 0.534936 0.564378 
308 2 12 0.149567 0.512533 0.551319 
309 1 12 0.159973 0.540121 0.537475 
310 2 12 0.17428 0.539815 0.547343 
311 2 12 0.156193 0.556561 0.535487 
312 2 12 0.164286 0.532331 0.523469 
313 1 13 0.368687 0.161112 0.996454 
314 2 13 0.37257 0.169714 0.0113029 
315 2 13 0.355999 0.167665 0.987629 
316 2 13 0.38223 0.164019 0.98666 
317 1 13 0.367654 0.137245 0.999369 
318 2 13 0.361621 0.134041 0.0153932 
319 2 13 0.383907 0.133328 0.999368 
320 1 13 0.355346 0.125853 0.981896 
321 2 13 0.340432 0.132291 0.984691 
322 1 13 0.35418 0.101385 0.985572 
323 2 13 0.370442 0.0960335 0.984275 
324 2 13 0.345761 0.0930817 0.972679 
325 1 13 0.346077 0.094435 0.00640636 
326 2 13 0.332641 0.104062 0.0105413 
327 2 13 0.357407 0.0951574 0.0191571 
328 1 13 0.339469 0.0716936 0.00997707 
329 2 13 0.349786 0.0613322 0.00218695 
330 2 13 0.340336 0.0656055 0.0262995 
331 2 13 0.32376 0.0682729 0.00650258 
332 1 13 0.362834 0.132532 0.959788 
333 2 13 0.362229 0.148853 0.957303 
334 2 13 0.378777 0.129212 0.960497 
335 1 13 0.353468 0.121533 0.940607 
336 2 13 0.353959 0.10479 0.942972 
337 2 13 0.363915 0.125077 0.928174 
338 2 13 0.338539 0.127017 0.937362 
339 1 14 0.56566 0.283743 0.233356 
340 2 14 0.568027 0.300938 0.231788 
341 2 14 0.549901 0.279855 0.228783 
342 2 14 0.576336 0.277907 0.221632 
343 1 14 0.572943 0.274179 0.254148 
344 2 14 0.589708 0.275362 0.255017 
345 2 14 0.567595 0.257626 0.251971 
346 1 14 0.562835 0.283065 0.274195 
347 2 14 0.569293 0.272784 0.286826 
348 1 14 0.538397 0.278701 0.273595 
349 2 14 0.534978 0.264232 0.264877 
350 2 14 0.53132 0.29052 0.263518 
351 1 14 0.529063 0.275837 0.29544 
352 2 14 0.52916 0.290538 0.303551 
353 2 14 0.539437 0.263838 0.303081 
354 1 14 0.506419 0.26898 0.295091 
355 2 14 0.499769 0.267551 0.310572 
356 2 14 0.498313 0.280725 0.286162 
357 2 14 0.504903 0.253493 0.289068 
358 1 14 0.566795 0.306591 0.279376 
359 2 14 0.557469 0.31588 0.268443 
360 2 14 0.562459 0.311058 0.294735 
361 1 14 0.590131 0.313802 0.27869 
362 2 14 0.590612 0.330649 0.27753 
363 2 14 0.597285 0.306063 0.264937 
364 2 14 0.599305 0.307595 0.290656 
365 1 15 0.521266 0.740423 0.374637 
366 2 15 0.52537 0.749186 0.388184 
367 2 15 0.516553 0.75026 0.362018 
368 2 15 0.534481 0.730256 0.370322 
369 1 15 0.501569 0.72692 0.379461 
370 2 15 0.495114 0.720885 0.366127 
371 2 15 0.488639 0.736735 0.384066 
372 1 15 0.502865 0.707993 0.394306 
373 2 15 0.487301 0.699483 0.393672 
374 1 15 0.506203 0.717446 0.415693 
375 2 15 0.49584 0.731418 0.416718 
376 2 15 0.521192 0.725364 0.417834 
377 1 15 0.504005 0.703388 0.434263 
378 2 15 0.518019 0.694243 0.433972 
379 2 15 0.493112 0.691334 0.432587 
380 1 15 0.503634 0.713771 0.454211 
381 2 15 0.495601 0.728349 0.453845 
382 2 15 0.49376 0.705441 0.465426 
383 2 15 0.519229 0.714941 0.460462 
384 1 15 0.519672 0.691908 0.388685 
385 2 15 0.534203 0.698072 0.393817 
386 2 15 0.517755 0.678723 0.398643 
387 1 15 0.522341 0.686502 0.365628 
388 2 15 0.511058 0.67606 0.36201 
389 2 15 0.53734 0.679333 0.363075 
390 2 15 0.521475 0.700629 0.355663 
391 1 16 0.951359 0.279174 0.864914 
392 2 16 0.942184 0.288763 0.855364 
393 2 16 0.943263 0.270326 0.876722 
394 2 16 0.957233 0.268208 0.854513 
395 1 16 0.969698 0.292712 0.874228 
396 2 16 0.961632 0.305268 0.882013 
397 2 16 0.978723 0.299507 0.861372 
398 1 16 0.982802 0.278902 0.889255 
399 2 16 0.97239 0.275055 0.901439 
400 1 16 0.00117972 0.29237 0.898717 
401 2 16 0.0104962 0.300183 0.887224 
402 2 16 0.0121443 0.283727 0.908019 
403 1 16 0.992318 0.307439 0.915695 
404 2 16 0.98702 0.298526 0.92975 
405 2 16 0.978774 0.315804 0.910104 
406 1 16 0.00766133 0.322916 0.923478 
407 2 16 0.0220638 0.315595 0.929631 
408 2 16 0.0122647 0.332927 0.910059 
409 2 16 0.00179947 0.333849 0.934938 
410 1 16 0.992215 0.259518 0.880292 
411 2 16 0.9805 0.253149 0.870009 
412 2 16 0.00576341 0.262769 0.86978 
413 1 16 0.997974 0.243819 0.897702 
414 2 16 0.0145204 0.243255 0.900669 
415 2 16 0.994909 0.227852 0.893101 
416 2 16 0.989626 0.245912 0.912845 
417 1 17 0.413977 0.751459 0.825583 
418 2 17 0.426888 0.7437 0.817054 
419 2 17 0.423214 0.762604 0.833199 
420 2 17 0.403465 0.758942 0.81376 
421 1 17 0.402862 0.738901 0.841819 
422 2 17 0.39495 0.727593 0.833019 
423 2 17 0.391241 0.74832 0.849503 
424 1 17 0.416312 0.726843 0.857614 
425 2 17 0.4295 0.721177 0.848435 
426 1 17 0.40547 0.706533 0.867451 
427 2 17 0.415706 0.695707 0.876876 
428 2 17 0.402968 0.697043 0.854599 
429 1 17 0.38488 0.707619 0.876765 
430 2 17 0.37344 0.714547 0.864978 
431 2 17 0.384738 0.716548 0.891173 
432 1 17 0.377002 0.685449 0.881744 
433 2 17 0.361302 0.686453 0.885096 
434 2 17 0.379746 0.675626 0.868351 
435 2 17 0.385508 0.677465 0.89369 
436 1 17 0.424239 0.74037 0.875535 
437 2 17 0.42888 0.755057 0.869426 
438 2 17 0.412966 0.742171 0.887383 
439 1 17 0.442257 0.729205 0.887094 
440 2 17 0.45085 0.74037 0.896808 
441 2 17 0.453412 0.722965 0.876612 
442 2 17 0.437144 0.719239 0.899095 
443 1 18 0.49117 0.306626 0.211507 
444 2 18 0.497068 0.290996 0.213283 
445 2 18 0.49184 0.31117 0.195526 
446 2 18 0.474865 0.305797 0.215998 
447 1 18 0.50467 0.320719 0.225547 
448 2 18 0.519675 0.325298 0.218808 
449 2 18 0.510197 0.311997 0.239279 
450 1 18 0.492908 0.338982 0.235254 
451 2 18 0.503704 0.347229 0.245791 
452 1 18 0.47228 0.333506 0.247089 
453 2 18 0.459572 0.331854 0.236745 
454 2 18 0.467 0.346575 0.256395 
455 1 18 0.473087 0.314853 0.261707 
456 2 18 0.487302 0.312662 0.268454 
457 2 18 0.46955 0.299794 0.253901 
458 1 18 0.458734 0.317305 0.28 
459 2 18 0.457418 0.304416 0.289268 
460 2 18 0.462664 0.33205 0.288181 
461 2 18 0.444663 0.322092 0.272969 
462 1 18 0.484964 0.355378 0.218461 
463 2 18 0.475913 0.347403 0.207021 
464 2 18 0.47557 0.366378 0.226743 
465 1 18 0.502613 0.365155 0.204901 
466 2 18 0.496852 0.377593 0.195195 
467 2 18 0.50869 0.353052 0.1959 
468 2 18 0.515618 0.369792 0.214066 
469 1 19 0.566891 0.874383 0.388652 
470 2 19 0.558198 0.881349 0.401626 
471 2 19 0.57148 0.888132 0.38126 
472 2 19 0.580948 0.866497 0.392554 
473 1 19 0.554218 0.858679 0.375557 
474 2 19 0.553314 0.843646 0.384559 
475 2 19 0.562821 0.854942 0.361646 
476 1 19 0.532178 0.866752 0.370503 
477 2 19 0.523622 0.872486 0.383926 
478 1 19 0.519108 0.847318 0.363164 
479 2 19 0.526688 0.833268 0.36595 
480 2 19 0.516352 0.848669 0.346528 
481 1 19 0.497712 0.846623 0.374628 
482 2 19 0.489333 0.860769 0.374822 
483 2 19 0.499503 0.844328 0.390655 
484 1 19 0.481976 0.830201 0.367515 
485 2 19 0.489083 0.814015 0.369297 
486 2 19 0.468985 0.828876 0.378985 
487 2 19 0.473719 0.831609 0.352275 
488 1 19 0.532777 0.883952 0.351813 
489 2 19 0.543027 0.897343 0.355108 
490 2 19 0.540237 0.877196 0.338892 
491 1 19 0.511936 0.894441 0.346373 
492 2 19 0.508019 0.901497 0.362254 
493 2 19 0.498284 0.88518 0.342425 
494 2 19 0.512173 0.908385 0.335362 
495 1 20 0.580829 0.504481 0.139157 
496 2 20 0.571638 0.51733 0.144493 
497 2 20 0.57077 0.489916 0.139372 
498 2 20 0.586367 0.507919 0.123032 
499 1 20 0.599962 0.502867 0.154262 
500 2 20 0.607621 0.517642 0.154753 
501 2 20 0.611184 0.491306 0.147369 
502 1 20 0.596468 0.494807 0.175936 
503 2 20 0.585929 0.480934 0.175622 
504 1 20 0.586446 0.512 0.189227 
505 2 20 0.575154 0.520858 0.17955 
506 2 20 0.597333 0.524773 0.193244 
507 1 20 0.577793 0.502132 0.209135 
508 2 20 0.587453 0.490608 0.216944 
509 2 20 0.563352 0.49401 0.205553 
510 1 20 0.572134 0.516282 0.226027 
511 2 20 0.585123 0.523955 0.234932 
512 2 20 0.559642 0.527171 0.219629 
513 2 20 0.566158 0.507553 0.238612 
514 1 20 0.615598 0.48635 0.187449 
515 2 20 0.612245 0.47815 0.201228 
516 2 20 0.623849 0.475695 0.177063 
517 1 20 0.631411 0.502641 0.193063 
518 2 20 0.646907 0.496359 0.195682 
519 2 20 0.628277 0.510235 0.207165 
520 2 20 0.633201 0.515281 0.182333 
521 1 21 0.384119 0.844291 0.0171594 
522 2 21 0.381665 0.861177 0.0185663 
523 2 21 0.375038 0.837294 0.00541877 
524 2 21 0.400823 0.841361 0.0135051 
525 1 21 0.380109 0.830708 0.0361372 
526 2 21 0.364197 0.835687 0.0419216 
527 2 21 0.390191 0.832041 0.049224 
528 1 21 0.378086 0.807803 0.0286579 
529 2 21 0.366398 0.805612 0.0167813 
530 1 21 0.368998 0.792523 0.0456699 
531 2 21 0.366429 0.776209 0.0410535 
532 2 21 0.352872 0.796876 0.0483028 
533 1 21 0.382042 0.792396 0.066317 
534 2 21 0.381248 0.808613 0.0716928 
535 2 21 0.398721 0.790273 0.061153 
536 1 21 0.376036 0.776675 0.0820447 
537 2 21 0.37124 0.764169 0.0724635 
538 2 21 0.389155 0.773866 0.0920825 
539 2 21 0.364233 0.781992 0.0921821 
540 1 21 0.398567 0.797684 0.0201619 
541 2 21 0.410871 0.805749 0.0291156 
542 2 21 0.397977 0.782221 0.0265933 
543 1 21 0.399979 0.797611 0.997718 
544 2 21 0.385512 0.793965 0.988549 
545 2 21 0.411041 0.785697 0.994673 
546 2 21 0.405519 0.812579 0.991211 
547 1 22 0.32905 0.857887 0.0837924 
548 2 22 0.315681 0.865297 0.0772138 
549 2 22 0.341781 0.855568 0.0733839 
550 2 22 0.334512 0.866425 0.0973861 
551 1 22 0.323277 0.836241 0.0902861 
552 2 22 0.337733 0.827759 0.09318 
553 2 22 0.316829 0.827502 0.0778591 
554 1 22 0.307083 0.836864 0.108749 
555 2 22 0.311107 0.848438 0.119431 
556 1 22 0.30644 0.816916 0.122401 
557 2 22 0.296149 0.805473 0.114097 
558 2 22 0.29693 0.820255 0.136663 
559 1 22 0.327742 0.806683 0.127744 
560 2 22 0.33967 0.817638 0.127968 
561 2 22 0.331797 0.794802 0.117257 
562 1 22 0.327175 0.797544 0.149798 
563 2 22 0.316499 0.785634 0.152672 
564 2 22 0.342424 0.790817 0.153806 
565 2 22 0.323838 0.809533 0.160966 
566 1 22 0.284619 0.844359 0.103337 
567 2 22 0.276093 0.845832 0.118595 
568 2 22 0.283552 0.857935 0.0939409 
569 1 22 0.27077 0.82812 0.0913803 
570 2 22 0.254255 0.833672 0.0932525 
571 2 22 0.27243 0.81137 0.0936281 
572 2 22 0.273968 0.829451 0.0747234 
573 1 23 0.856611 0.289366 0.786136 
574 2 23 0.867779 0.299897 0.79356 
575 2 23 0.866362 0.279667 0.776581 
576 2 23 0.847221 0.280293 0.79704 
577 1 23 0.839543 0.299075 0.771887 
578 2 23 0.846919 0.312086 0.763458 
579 2 23 0.82892 0.30793 0.781381 
580 1 23 0.828542 0.283584 0.757111 
581 2 23 0.841196 0.274682 0.748973 
582 1 23 0.815718 0.294076 0.740142 
583 2 23 0.801744 0.301681 0.746454 
584 2 23 0.810385 0.280957 0.730863 
585 1 23 0.82777 0.306844 0.723717 
586 2 23 0.821216 0.302335 0.708611 
587 2 23 0.844281 0.301155 0.722086 
588 1 23 0.824896 0.330278 0.726377 
589 2 23 0.819405 0.331744 0.742652 
590 2 23 0.837928 0.341102 0.725163 
591 2 23 0.813056 0.335984 0.716238 
592 1 23 0.814332 0.268639 0.769123 
593 2 23 0.82034 0.265872 0.784699 
594 2 23 0.799229 0.275414 0.770764 
595 1 23 0.810997 0.246704 0.760065 
596 2 23 0.807323 0.247813 0.744024 
597 2 23 0.798184 0.241035 0.768318 
598 2 23 0.824997 0.236227 0.760785 
599 1 24 0.667858 0.923052 0.156099 
600 2 24 0.683973 0.921161 0.157192 
601 2 24 0.662298 0.937702 0.162649 
602 2 24 0.664843 0.924863 0.138667 
603 1 24 0.656462 0.903951 0.165408 
604 2 24 0.660134 0.904567 0.181588 
605 2 24 0.66514 0.891263 0.15942 
606 1 24 0.632439 0.902452 0.164085 
607 2 24 0.62666 0.89215 0.176802 
608 1 24 0.628181 0.891904 0.142949 
609 2 24 0.636385 0.897918 0.129114 
610 2 24 0.612168 0.896264 0.140465 
611 1 24 0.630205 0.867483 0.143511 
612 2 24 0.61987 0.860704 0.15538 
613 2 24 0.646435 0.863449 0.147161 
614 1 24 0.623634 0.857347 0.123443 
615 2 24 0.607123 0.85877 0.120407 
616 2 24 0.63151 0.865172 0.110942 
617 2 24 0.625463 0.840655 0.123807 
618 1 24 0.621574 0.92502 0.166565 
619 2 24 0.625046 0.932962 0.152387 
620 2 24 0.605171 0.922572 0.164527 
621 1 24 0.626057 0.937509 0.185978 
622 2 24 0.617792 0.928646 0.197979 
623 2 24 0.624191 0.954102 0.185201 
624 2 24 0.642222 0.934814 0.191929 
625 1 25 0.836484 0.499004 0.993079 
626 2 25 0.838196 0.511638 0.982488 
627 2 25 0.842763 0.486054 0.985544 
628 2 25 0.84822 0.500062 0.00527488 
629 1 25 0.813934 0.496432 0.999319 
630 2 25 0.806166 0.492998 0.983856 
631 2 25 0.808462 0.511795 0.0060194 
632 1 25 0.811814 0.479135 0.014912 
633 2 25 0.796632 0.477397 0.0218972 
634 1 25 0.824945 0.481824 0.0340052 
635 2 25 0.839431 0.472882 0.0298532 
636 2 25 0.820157 0.473124 0.0476818 
637 1 25 0.829703 0.50469 0.0419881 
638 2 25 0.836623 0.514524 0.0296567 
639 2 25 0.841529 0.50297 0.054122 
640 1 25 0.81291 0.517125 0.0545726 
641 2 25 0.810344 0.506253 0.0675311 
642 2 25 0.819213 0.531062 0.060237 
643 2 25 0.797853 0.517263 0.0468629 
644 1 25 0.813347 0.456479 0.00460699 
645 2 25 0.828394 0.453344 1.00039 
646 2 25 0.810194 0.444076 0.0151552 
647 1 25 0.800233 0.452973 0.985696 
648 2 25 0.802109 0.463007 0.972347 
649 2 25 0.784422 0.455141 0.989839 
650 2 25 0.801448 0.436649 0.980352 
651 1 26 0.560653 0.184133 0.884389 
652 2 26 0.54291 0.18309 0.88345 
653 2 26 0.566722 0.186956 0.868446 
654 2 26 0.56319 0.19637 0.896018 
655 1 26 0.564862 0.162806 0.89293 
656 2 26 0.559978 0.151956 0.880937 
657 2 26 0.554184 0.161893 0.906517 
658 1 26 0.587591 0.160047 0.899048 
659 2 26 0.591365 0.173895 0.908154 
660 1 26 0.603687 0.159043 0.881625 
661 2 26 0.597121 0.165816 0.866569 
662 2 26 0.607816 0.142965 0.876279 
663 1 26 0.624536 0.170499 0.887193 
664 2 26 0.631645 0.162876 0.900339 
665 2 26 0.623573 0.186879 0.89205 
666 1 26 0.640228 0.169512 0.869367 
667 2 26 0.640836 0.15475 0.861094 
668 2 26 0.636283 0.180847 0.857825 
669 2 26 0.655913 0.1731 0.874723 
670 1 26 0.590596 0.143083 0.915424 
671 2 26 0.606778 0.140609 0.918164 
672 2 26 0.583613 0.147824 0.929865 
673 1 26 0.584989 0.122048 0.908173 
674 2 26 0.568046 0.118663 0.905574 
675 2 26 0.591511 0.112209 0.919776 
676 2 26 0.592743 0.116734 0.894202 
677 1 27 0.540197 0.00673398 0.743965 
678 2 27 0.544601 0.991393 0.751052 
679 2 27 0.545997 0.0189198 0.7535 
680 2 27 0.548043 0.00660256 0.729004 
681 1 27 0.516324 0.0103346 0.743174 
682 2 27 0.508297 0.000431981 0.73136 
683 2 27 0.51451 0.0255291 0.736312 
684 1 27 0.505896 0.0107199 0.76365 
685 2 27 0.514255 0.0214839 0.773007 
686 1 27 0.504876 0.98978 0.773826 
687 2 27 0.517929 0.981824 0.76787 
688 2 27 0.491416 0.982653 0.767471 
689 1 27 0.506621 0.98785 0.79756 
690 2 27 0.511407 0.00308492 0.803683 
691 2 27 0.519148 0.977671 0.801344 
692 1 27 0.485056 0.981309 0.806705 
693 2 27 0.472301 0.989552 0.799757 
694 2 27 0.482302 0.964833 0.803989 
695 2 27 0.485837 0.982528 0.823164 
696 1 27 0.485147 0.0219687 0.765441 
697 2 27 0.481067 0.022583 0.78141 
698 2 27 0.487266 0.0386295 0.760986 
699 1 27 0.468214 0.0142294 0.750998 
700 2 27 0.475642 0.00874991 0.736784 
701 2 27 0.45687 0.0260654 0.747314 
702 2 27 0.459794 0.000430985 0.757266 
703 1 28 0.627628 0.106085 0.229881 
704 2 28 0.623841 0.0924854 0.238319 
705 2 28 0.613963 0.115357 0.229351 
706 2 28 0.640572 0.114487 0.235547 
707 1 28 0.633251 0.0950812 0.209007 
708 2 28 0.645015 0.0834037 0.212288 
709 2 28 0.640906 0.106562 0.1995 
710 1 28 0.615727 0.0837191 0.196405 
711 2 28 0.603139 0.0952167 0.192681 
712 1 28 0.603254 0.0688694 0.210738 
713 2 28 0.614406 0.0642948 0.2236 
714 2 28 0.598384 0.0539487 0.202395 
715 1 28 0.584056 0.0782642 0.22172 
716 2 28 0.572985 0.0834131 0.210499 
717 2 28 0.589317 0.091441 0.231035 
718 1 28 0.572783 0.0644131 0.236928 
719 2 28 0.558076 0.0697214 0.244529 
720 2 28 0.567626 0.0511905 0.228067 
721 2 28 0.582605 0.0590513 0.248449 
722 1 28 0.623722 0.0722964 0.177827 
723 2 28 0.63557 0.0614837 0.182691 
724 2 28 0.61196 0.0636091 0.171842 
725 1 28 0.632953 0.084455 0.160343 
726 2 28 0.64741 0.0924075 0.164607 
727 2 28 0.622104 0.0950629 0.153983 
728 2 28 0.635746 0.0717699 0.148434 
729 1 29 0.381296 0.859716 0.448697 
730 2 29 0.373422 0.87425 0.451889 
731 2 29 0.392574 0.866811 0.438248 
732 2 29 0.389729 0.853781 0.461482 
733 1 29 0.367271 0.843605 0.437511 
734 2 29 0.352321 0.851414 0.432972 
735 2 29 0.361807 0.832725 0.449095 
736 1 29 0.378253 0.832493 0.419468 
737 2 29 0.366594 0.821655 0.414958 
738 1 29 0.398412 0.822922 0.427132 
739 2 29 0.409749 0.833759 0.433511 
740 2 29 0.406903 0.818316 0.412763 
741 1 29 0.396428 0.804302 0.441686 
742 2 29 0.382415 0.795452 0.44044 
743 2 29 0.397939 0.810234 0.458065 
744 1 29 0.414631 0.787976 0.438676 
745 2 29 0.408339 0.773715 0.442792 
746 2 29 0.42012 0.787088 0.422455 
747 2 29 0.427407 0.791406 0.448153 
748 1 29 0.380068 0.846519 0.398996 
749 2 29 0.366089 0.855223 0.398316 
750 2 29 0.393371 0.85749 0.401344 
751 1 29 0.383545 0.835986 0.378098 
752 2 29 0.397898 0.827089 0.378583 
753 2 29 0.385884 0.84863 0.367035 
754 2 29 0.370696 0.826267 0.3748 
755 1 30 0.769691 0.845379 0.626182 
756 2 30 0.762057 0.844858 0.640402 
757 2 30 0.757219 0.840775 0.615442 
758 2 30 0.773123 0.86048 0.622761 
759 1 30 0.7872 0.829455 0.624312 
760 2 30 0.78892 0.827246 0.607228 
761 2 30 0.781447 0.814326 0.630065 
762 1 30 0.808744 0.835445 0.634083 
763 2 30 0.817917 0.82375 0.627325 
764 1 30 0.809845 0.832453 0.657785 
765 2 30 0.826822 0.832681 0.663105 
766 2 30 0.804666 0.816319 0.658873 
767 1 30 0.799628 0.848935 0.673152 
768 2 30 0.784492 0.85399 0.666744 
769 2 30 0.807379 0.864383 0.673387 
770 1 30 0.794788 0.839591 0.694707 
771 2 30 0.786513 0.850692 0.704829 
772 2 30 0.782911 0.827648 0.692286 
773 2 30 0.808161 0.831405 0.70092 
774 1 30 0.818029 0.856444 0.626227 
775 2 30 0.813639 0.861006 0.611605 
776 2 30 0.809951 0.868601 0.634805 
777 1 30 0.841197 0.8585 0.629372 
778 2 30 0.848641 0.85127 0.61468 
779 2 30 0.847459 0.851602 0.643498 
780 2 30 0.846672 0.873995 0.628321 
781 1 31 0.542928 0.0459503 0.690034 
782 2 31 0.541139 0.0437398 0.672281 
783 2 31 0.531633 0.034485 0.695581 
784 2 31 0.558124 0.0410762 0.694433 
785 1 31 0.534024 0.0665455 0.697914 
786 2 31 0.530138 0.0638089 0.714455 
787 2 31 0.518718 0.0695302 0.689411 
788 1 31 0.548948 0.0858903 0.695096 
789 2 31 0.537835 0.0977013 0.697308 
790 1 31 0.555279 0.08746 0.673397 
791 2 31 0.542988 0.0814201 0.6629 
792 2 31 0.56756 0.0760766 0.670558 
793 1 31 0.562778 0.109484 0.666679 
794 2 31 0.578612 0.11038 0.670417 
795 2 31 0.555397 0.120691 0.677415 
796 1 31 0.560328 0.11577 0.643678 
797 2 31 0.544028 0.118869 0.642421 
798 2 31 0.568217 0.12947 0.639602 
799 2 31 0.563724 0.102281 0.63419 
800 1 31 0.567447 0.0893379 0.71029 
801 2 31 0.580754 0.0794912 0.704893 
802 2 31 0.573852 0.103932 0.707476 
803 1 31 0.563255 0.0905163 0.733541 
804 2 31 0.550976 0.101558 0.737477 
805 2 31 0.576678 0.0938888 0.742668 
806 2 31 0.558582 0.0748546 0.738334 
807 1 32 0.820406 0.798494 0.804165 
808 2 32 0.837997 0.796744 0.803057 
809 2 32 0.815496 0.787437 0.815803 
810 2 32 0.816659 0.814292 0.809094 
811 1 32 0.806845 0.795145 0.784324 
812 2 32 0.807123 0.778936 0.780049 
813 2 32 0.813593 0.802098 0.770793 
814 1 32 0.785015 0.80233 0.788368 
815 2 32 0.786069 0.816992 0.796005 