ITEM: TIMESTEP
20000000
ITEM: NUMBER OF ATOMS
1000
ITEM: BOX BOUNDS pp pp pp
-5.7226117094076726e-02 6.4637226117109577e+01
-5.7226117094076726e-02 6.4637226117109577e+01
-5.7226117094076726e-02 6.4637226117109577e+01
ITEM: ATOMS id type mol xs ys zs 
1 1 1 0.0274612 0.215145 0.373952 
2 1 2 0.37926 0.657704 0.930156 
3 1 3 0.622777 0.506254 0.993418 
4 1 4 0.312662 0.702167 0.188751 
5 1 5 0.170973 0.0267275 0.503214 
6 1 6 0.0523824 0.143061 0.76314 
7 1 7 0.390222 0.284798 0.85689 
8 1 8 0.216214 0.85776 0.792928 
9 1 9 0.0543632 0.13894 0.543843 
10 1 10 0.00558178 0.337875 0.811577 
11 1 11 0.515378 0.513322 0.786681 
12 1 12 0.922894 0.46381 0.403568 
13 1 13 0.114004 0.905607 0.624704 
14 1 14 0.409616 0.665703 0.385306 
15 1 15 0.114494 0.400662 0.701071 
16 1 16 0.857326 0.257147 0.0814972 
17 1 17 0.21202 0.154306 0.632463 
18 1 18 0.926073 0.575141 0.925301 
19 1 19 0.691462 0.363507 0.0846596 
20 1 20 0.733201 0.71979 0.912687 
21 1 21 0.130932 0.470151 0.764511 
22 1 22 0.458822 0.958892 0.667761 
23 1 23 0.333641 0.77313 0.945061 
24 1 24 0.72502 0.314512 0.728526 
25 1 25 0.988611 0.938004 0.145146 
26 1 26 0.076153 0.855201 0.788654 
27 1 27 0.809282 0.645866 0.369526 
28 1 28 0.104735 0.992604 0.859533 
29 1 29 0.602202 0.295701 0.185388 
30 1 30 0.40586 0.748316 0.361166 
31 1 31 0.525625 0.888436 0.626483 
32 1 32 0.744044 0.181084 0.139331 
33 1 33 0.725617 0.142992 0.836289 
34 1 34 0.831487 0.684761 0.193156 
35 1 35 0.0981728 0.42909 0.48251 
36 1 36 0.174947 0.137174 0.811422 
37 1 37 0.124669 0.978251 0.561346 
38 1 38 0.950525 0.357522 0.595105 
39 1 39 0.862518 0.46462 0.594305 
40 1 40 0.0100127 0.658712 0.739418 
41 1 41 0.0365782 0.595627 0.284447 
42 1 42 0.159205 0.427297 0.193158 
43 1 43 0.361873 0.419588 0.823335 
44 1 44 0.8313 0.397408 0.405994 
45 1 45 0.0432625 0.983155 0.407238 
46 1 46 0.43907 0.292804 0.0411257 
47 1 47 0.811556 0.142618 0.859927 
48 1 48 0.429729 0.801802 0.217866 
49 1 49 0.511854 0.308357 0.600283 
50 1 50 0.0529183 0.757638 0.134763 
51 1 51 0.402789 0.500318 0.185074 
52 1 52 0.211645 0.320222 0.854616 
53 1 53 0.0129697 0.639562 0.37064 
54 1 54 0.408661 0.411169 0.974978 
55 1 55 0.0761538 0.42478 0.262699 
56 1 56 0.822354 0.140034 0.755388 
57 1 57 0.21386 0.287506 0.110239 
58 1 58 0.333393 0.750307 0.671342 
59 1 59 0.477357 0.154086 0.418036 
60 1 60 0.555741 0.724959 0.866239 
61 1 61 0.802859 0.513036 0.143293 
62 1 62 0.525518 0.0804314 0.839375 
63 1 63 0.0679011 0.563577 0.504783 
64 1 64 0.508748 0.603905 0.0560127 
65 1 65 0.218518 0.861372 0.998945 
66 1 66 0.758415 0.208994 0.768959 
67 1 67 0.283483 0.0455455 0.211492 
68 1 68 0.513939 0.275609 0.71193 
69 1 69 0.615116 0.653774 0.0478842 
70 1 70 0.920636 0.389464 0.352338 
71 1 71 0.00373463 0.449386 0.0940745 
72 1 72 0.841555 0.693055 0.761487 
73 1 73 0.56399 0.859955 0.537811 
74 1 74 0.728715 0.0642639 0.232361 
75 1 75 0.211786 0.383284 0.58907 
76 1 76 0.200801 0.29043 0.53056 
77 1 77 0.402605 0.316027 0.943228 
78 1 78 0.285762 0.904557 0.789384 
79 1 79 0.695442 0.292233 0.375657 
80 1 80 0.595282 0.552609 0.927644 
81 1 81 0.128662 0.398574 0.0230995 
82 1 82 0.479072 0.68106 0.441495 
83 1 83 0.585228 0.756604 0.599626 
84 1 84 0.814674 0.0624885 0.278252 
85 1 85 0.190796 0.84924 0.561083 
86 1 86 0.876482 0.963056 0.0511283 
87 1 87 0.345848 0.0309334 0.934741 
88 1 88 0.569393 0.199303 0.0649927 
89 1 89 0.955893 0.821583 0.470983 
90 1 90 0.494385 0.683217 0.603904 
91 1 91 0.673597 0.263373 0.0871625 
92 1 92 0.152864 0.925686 0.221418 
93 1 93 0.980191 0.693189 0.426315 
94 1 94 0.184064 0.00702922 0.626049 
95 1 95 0.551699 0.200945 0.668296 
96 1 96 0.826472 0.027564 0.497696 
97 1 97 0.275795 0.661713 0.674605 
98 1 98 0.869552 0.962412 0.692001 
99 1 99 0.61698 0.173196 0.406468 
100 1 100 0.292565 0.465135 0.836154 
101 1 101 0.99754 0.879773 0.731381 
102 1 102 0.372638 0.356562 0.0696652 
103 1 103 0.39805 0.92054 0.0275109 
104 1 104 0.176922 0.155265 0.294259 
105 1 105 0.435438 0.902356 0.522117 
106 1 106 0.599263 0.256936 0.430076 
107 1 107 0.0866713 0.757288 0.778131 
108 1 108 0.886908 0.140515 0.48961 
109 1 109 0.697601 0.7568 0.165299 
110 1 110 0.387971 0.524392 0.492579 
111 1 111 0.281499 0.656748 0.064512 
112 1 112 0.585264 0.292647 0.0464715 
113 1 113 0.486796 0.0671498 0.142737 
114 1 114 0.377338 0.734171 0.764424 
115 1 115 0.599671 0.644608 0.303397 
116 1 116 0.834657 0.405544 0.215841 
117 1 117 0.276554 0.944188 0.432395 
118 1 118 0.585243 0.683782 0.971455 
119 1 119 0.531133 0.465278 0.411504 
120 1 120 0.137415 0.280771 0.359333 
121 1 121 0.263612 0.951691 0.261506 
122 1 122 0.737956 0.122558 0.567416 
123 1 123 0.179377 0.779596 0.0708133 
124 1 124 0.530973 0.0822954 0.0723891 
125 1 125 0.313847 0.24883 0.350609 
126 1 126 0.251516 0.786216 0.655364 
127 1 127 0.155654 0.0105258 0.789199 
128 1 128 0.689993 0.438451 0.854278 
129 1 129 0.959919 0.880161 0.24246 
130 1 130 0.767394 0.930347 0.796115 
131 1 131 0.476452 0.174243 0.254178 
132 1 132 0.466187 0.371935 0.361781 
133 1 133 0.960499 0.926217 0.960472 
134 1 134 0.94589 0.797814 0.78434 
135 1 135 0.364665 0.960313 0.388926 
136 1 136 0.7649 0.516266 0.222874 
137 1 137 0.262522 0.252695 0.856061 
138 1 138 0.523851 0.877793 0.826788 
139 1 139 0.56725 0.359799 0.672917 
140 1 140 0.32793 0.486576 0.088664 
141 1 141 0.254796 0.698509 0.955396 
142 1 142 0.409121 0.614441 0.189913 
143 1 143 0.849791 0.0791326 0.928905 
144 1 144 0.752503 0.900215 0.402037 
145 1 145 0.0869543 0.316105 0.775387 
146 1 146 0.596623 0.549272 0.207453 
147 1 147 0.792051 0.356399 0.997569 
148 1 148 0.287112 0.0601563 0.0172703 
149 1 149 0.18954 0.528913 0.565211 
150 1 150 0.135182 0.840584 0.152306 
151 1 151 0.788054 0.919199 0.618192 
152 1 152 0.86275 0.952942 0.129172 
153 1 153 0.619985 0.915834 0.302907 
154 1 154 0.540907 0.0114563 0.465329 
155 1 155 0.918679 0.128766 0.631613 
156 1 156 0.819452 0.344439 0.469597 
157 1 157 0.351539 0.0724703 0.450862 
158 1 158 0.15432 0.907966 0.858312 
159 1 159 0.745171 0.115799 0.477323 
160 1 160 0.954234 0.88025 0.0488939 
161 1 161 0.881079 0.802342 0.423592 
162 1 162 0.00234096 0.868111 0.994095 
163 1 163 0.0132252 0.866486 0.88515 
164 1 164 0.817891 0.77658 0.262375 
165 1 165 0.0732613 0.781225 0.00624387 
166 1 166 0.39868 0.291757 0.278747 
167 1 167 0.535036 0.773537 0.12078 
168 1 168 0.806218 0.298268 0.783498 
169 1 169 0.891761 0.60096 0.233201 
170 1 170 0.305603 0.327103 0.830286 
171 1 171 0.479702 0.754463 0.0427046 
172 1 172 0.539905 0.180267 0.758897 
173 1 173 0.773927 0.772335 0.190178 
174 1 174 0.683399 0.791138 0.85171 
175 1 175 0.678252 0.592868 0.612734 
176 1 176 0.663916 0.294042 0.284471 
177 1 177 0.427655 0.545902 0.693497 
178 1 178 0.0174731 0.404261 0.190789 
179 1 179 0.768671 0.452309 0.0395648 
180 1 180 0.371187 0.531828 0.249446 
181 1 181 0.82434 0.797446 0.740418 
182 1 182 0.783717 0.861746 0.982213 
183 1 183 0.496992 0.95686 0.98933 
184 1 184 0.892113 0.0322123 0.231803 
185 1 185 0.877952 0.555918 0.857763 
186 1 186 0.49417 0.572543 0.973487 
187 1 187 0.663701 0.401066 0.687441 
188 1 188 0.674825 0.542761 0.408251 
189 1 189 0.124588 0.0037585 0.447965 
190 1 190 0.632724 0.46423 0.44352 
191 1 191 0.31577 0.809464 0.239565 
192 1 192 0.0490189 0.237594 0.860844 
193 1 193 0.628194 0.373267 0.374912 
194 1 194 0.800324 0.313697 0.170338 
195 1 195 0.440804 0.0783546 0.785361 
196 1 196 0.163523 0.0720977 0.727645 
197 1 197 0.649069 0.0822423 0.408741 
198 1 198 0.164211 0.726773 0.97426 
199 1 199 0.72722 0.507436 0.527237 
200 1 200 0.26975 0.0321811 0.437221 
201 1 201 0.304176 0.574991 0.714497 
202 1 202 0.967785 0.0411759 0.969339 
203 1 203 0.634955 0.906585 0.570707 
204 1 204 0.36334 0.238007 0.227038 
205 1 205 0.485295 0.984896 0.0681476 
206 1 206 0.546617 0.16852 0.315236 
207 1 207 0.161403 0.481636 0.977984 
208 1 208 0.411642 0.0346021 0.209218 
209 1 209 0.227805 0.279976 0.369462 
210 1 210 0.409834 0.00272243 0.580446 
211 1 211 0.751584 0.107013 0.069468 
212 1 212 0.150505 0.674864 0.424113 
213 1 213 0.0627507 0.307468 0.270395 
214 1 214 0.00430865 0.0470236 0.106207 
215 1 215 0.0230903 0.0248517 0.248781 
216 1 216 0.603247 0.559423 0.639109 
217 1 217 0.756875 0.343583 0.278307 
218 1 218 0.374149 0.00271944 0.483214 
219 1 219 0.841151 0.230885 0.335202 
220 1 220 0.795113 0.326986 0.864001 
221 1 221 0.680626 0.303595 0.983351 
222 1 222 0.619051 0.0489337 0.130191 
223 1 223 0.265681 0.0312814 0.120509 
224 1 224 0.365971 0.114895 0.296453 
225 1 225 0.839188 0.66406 0.872952 
226 1 226 0.360342 0.255463 0.0165002 
227 1 227 0.719438 0.63021 0.218821 
228 1 228 0.89321 0.509257 0.107133 
229 1 229 0.763229 0.9262 0.215376 
230 1 230 0.206554 0.605987 0.250456 
231 1 231 0.388037 0.259808 0.754316 
232 1 232 0.0310462 0.210869 0.683031 
233 1 233 0.570594 0.262873 0.26379 
234 1 234 0.875453 0.0514144 0.822898 
235 1 235 0.354764 0.854313 0.685151 
236 1 236 0.241099 0.456616 0.600431 
237 1 237 0.533766 0.103384 0.211592 
238 1 238 0.271502 0.793067 0.761055 
239 1 239 0.27041 0.851842 0.619796 
240 1 240 0.539526 0.952579 0.877227 
241 1 241 0.60657 0.277948 0.733153 
242 1 242 0.886771 0.570057 0.388626 
243 1 243 0.832696 0.586935 0.56728 
244 1 244 0.457368 0.818751 0.562797 
245 1 245 0.498434 0.342171 0.284992 
246 1 246 0.468695 0.401896 0.86296 
247 1 247 0.500386 0.183997 0.158726 
248 1 248 0.0697489 0.191716 0.302061 
249 1 249 0.92289 0.301482 0.822682 
250 1 250 0.110063 0.799646 0.471827 
251 1 251 0.225793 0.691129 0.25837 
252 1 252 0.370865 0.591955 0.376709 
253 1 253 0.13351 0.187085 0.374484 
254 1 254 0.0875526 0.156877 0.181376 
255 1 255 0.590728 0.500713 0.325134 
256 1 256 0.552849 0.45696 0.263377 
257 1 257 0.4747 0.127802 0.0458384 
258 1 258 0.743503 0.0228234 0.436961 
259 1 259 0.98211 0.842536 0.159999 
260 1 260 0.241368 0.772036 0.00124653 
261 1 261 0.457797 0.992931 0.496973 
262 1 262 0.479792 0.237192 0.333001 
263 1 263 0.188269 0.432858 0.681517 
264 1 264 0.144494 0.649494 0.0769403 
265 1 265 0.242329 0.0567511 0.930849 
266 1 266 0.388057 0.744434 0.104375 
267 1 267 0.864825 0.442735 0.13131 
268 1 268 0.297628 0.139515 0.764634 
269 1 269 0.65584 0.0113336 0.461076 
270 1 270 0.426873 0.108543 0.502018 
271 1 271 0.848006 0.341581 0.0855877 
272 1 272 0.437591 0.67998 0.689335 
273 1 273 0.644582 0.83254 0.711267 
274 1 274 0.622879 0.431148 0.169387 
275 1 275 0.886019 0.933561 0.249825 
276 1 276 0.778912 0.406829 0.137428 
277 1 277 0.91398 0.333752 0.92904 
278 1 278 0.82474 0.91361 0.462682 
279 1 279 0.329958 0.061066 0.813946 
280 1 280 0.919759 0.824631 0.08975 
281 1 281 0.528553 0.272737 0.101262 
282 1 282 0.419225 0.439276 0.12274 
283 1 283 0.201535 0.428134 0.498009 
284 1 284 0.495517 0.385826 0.0957561 
285 1 285 0.593966 0.898933 0.0990731 
286 1 286 0.763944 0.904482 0.0606498 
287 1 287 0.471905 0.408415 0.235215 
288 1 288 0.993234 0.624477 0.649103 
289 1 289 0.848298 0.988035 0.337364 
290 1 290 0.471136 0.265431 0.923482 
291 1 291 0.057803 0.345816 0.565662 
292 1 292 0.524096 0.798826 0.796445 
293 1 293 0.0192709 0.245735 0.592929 
294 1 294 0.430227 0.442238 0.488067 
295 1 295 0.316982 0.234657 0.70769 
296 1 296 0.728191 0.646811 0.524388 
297 1 297 0.583645 0.187918 0.204927 
298 1 298 0.521316 0.451179 0.683481 
299 1 299 0.171263 0.948876 0.395958 
300 1 300 0.126396 0.142394 0.697677 
301 1 301 0.190991 0.939769 0.734791 
302 1 302 0.140088 0.833369 0.2752 
303 1 303 0.0142973 0.711371 0.172645 
304 1 304 0.706702 0.714176 0.408643 
305 1 305 0.563282 0.591154 0.451381 
306 1 306 0.709171 0.363933 0.50094 
307 1 307 0.102034 0.489919 0.0548679 
308 1 308 0.70523 0.998489 0.999062 
309 1 309 0.598921 0.975006 0.40931 
310 1 310 0.759802 0.635469 0.790994 
311 1 311 0.33898 0.266726 0.116141 
312 1 312 0.826068 0.769092 0.598766 
313 1 313 0.0608485 0.549607 0.34669 
314 1 314 0.160871 0.117898 0.990581 
315 1 315 0.583779 0.479152 0.852055 
316 1 316 0.607236 0.811271 0.890845 
317 1 317 0.59626 0.702673 0.74587 
318 1 318 0.538614 0.484775 0.168171 
319 1 319 0.148421 0.464342 0.284709 
320 1 320 0.0626898 0.741865 0.461144 
321 1 321 0.632514 0.744151 0.504428 
322 1 322 0.38322 0.423737 0.580768 
323 1 323 0.257728 0.97926 0.853444 
324 1 324 0.211443 0.443074 0.0816197 
325 1 325 0.780871 0.111018 0.67884 
326 1 326 0.371447 0.683125 0.00221635 
327 1 327 0.409844 0.0329781 0.340647 
328 1 328 0.440192 0.832229 0.0982645 
329 1 329 0.867439 0.800742 0.970135 
330 1 330 0.560719 0.654816 0.667926 
331 1 331 0.0810716 0.69017 0.229115 
332 1 332 0.639223 0.971378 0.642593 
333 1 333 0.945796 0.240818 0.139652 
334 1 334 0.580708 0.301297 0.343093 
335 1 335 0.648029 0.992611 0.751983 
336 1 336 0.82579 0.120195 0.153969 
337 1 337 0.0714263 0.627173 0.916065 
338 1 338 0.275878 0.131164 0.0998961 
339 1 339 0.547544 0.352283 0.453897 
340 1 340 0.92439 0.189747 0.900649 
341 1 341 0.408915 0.185116 0.324629 
342 1 342 0.70637 0.969659 0.17432 
343 1 343 0.959301 0.329835 0.31011 
344 1 344 0.418811 0.527356 0.598284 
345 1 345 0.0632297 0.980546 0.0935165 
346 1 346 0.536903 0.586193 0.712556 
347 1 347 0.0919456 0.678386 0.326274 
348 1 348 0.268875 0.16899 0.828873 
349 1 349 0.608356 0.892026 0.663164 
350 1 350 0.524217 0.87011 0.0214413 
351 1 351 0.772729 0.132944 0.246252 
352 1 352 0.600998 0.988107 0.077804 
353 1 353 0.871971 0.305052 0.407647 
354 1 354 0.986005 0.800138 0.641382 
355 1 355 0.126917 0.311034 0.155403 
356 1 356 0.644939 0.908731 0.865609 
357 1 357 0.165987 0.493675 0.858778 
358 1 358 0.289409 0.145237 0.230589 
359 1 359 0.160374 0.750738 0.378594 
360 1 360 0.747947 0.49012 0.396313 
361 1 361 0.442017 0.717087 0.224256 
362 1 362 0.913679 0.726033 0.14571 
363 1 363 0.830139 0.693629 0.952076 
364 1 364 0.860424 0.36942 0.695585 
365 1 365 0.101946 0.672279 0.615527 
366 1 366 0.0220686 0.560767 0.850081 
367 1 367 0.292649 0.529025 0.610866 
368 1 368 0.1943 0.638145 0.954408 
369 1 369 0.447145 0.808521 0.691256 
370 1 370 0.1713 0.607694 0.488595 
371 1 371 0.160585 0.94263 0.985713 
372 1 372 0.993689 0.27797 0.433762 
373 1 373 0.71229 0.367064 0.816378 
374 1 374 0.910192 0.654036 0.325018 
375 1 375 0.917462 0.949386 0.382536 
376 1 376 0.22331 0.871763 0.177097 
377 1 377 0.201603 0.579064 0.731808 
378 1 378 0.263674 0.540476 0.390841 
379 1 379 0.160166 0.373397 0.107594 
380 1 380 0.918682 0.924197 0.488599 
381 1 381 0.488927 0.722906 0.752323 
382 1 382 0.10073 0.886028 0.929494 
383 1 383 0.128123 0.498394 0.57542 
384 1 384 0.894645 0.907424 0.613143 
385 1 385 0.834971 0.048821 0.716552 
386 1 386 0.11406 0.0803017 0.831774 
387 1 387 0.593775 0.948474 0.994042 
388 1 388 0.945484 0.602437 0.11378 
389 1 389 0.411737 0.809354 0.858134 
390 1 390 0.408932 0.243657 0.659161 
391 1 391 0.884366 0.227623 0.229018 
392 1 392 0.828705 0.209353 0.676278 
393 1 393 0.419163 0.217906 0.465836 
394 1 394 0.577783 0.954191 0.775112 
395 1 395 0.202908 0.449024 0.348896 
396 1 396 0.255473 0.195099 0.153345 
397 1 397 0.613975 0.120809 0.51873 
398 1 398 0.11084 0.0727039 0.38215 
399 1 399 0.391244 0.936521 0.938685 
400 1 400 0.786093 0.498452 0.330004 
401 1 401 0.567549 0.987923 0.697646 
402 1 402 0.000982547 0.393165 0.957071 
403 1 403 0.212618 0.197044 0.439401 
404 1 404 0.0789795 0.460622 0.904027 
405 1 405 0.998413 0.752011 0.732546 
406 1 406 0.0217366 0.0956916 0.315793 
407 1 407 0.386815 0.078805 0.0868003 
408 1 408 0.161759 0.142207 0.0875778 
409 1 409 0.77308 0.543001 0.613662 
410 1 410 0.991537 0.977124 0.0622998 
411 1 411 0.921244 0.757378 0.695295 
412 1 412 0.653224 0.262125 0.555302 
413 1 413 0.548398 0.233381 0.976653 
414 1 414 0.157019 0.201552 0.869079 
415 1 415 0.91093 0.694369 0.628323 
416 1 416 0.614307 0.208733 0.845897 
417 1 417 0.454951 0.175974 0.905854 
418 1 418 0.460513 0.0443867 0.273228 
419 1 419 0.792058 0.451587 0.858007 
420 1 420 0.0105118 0.451333 0.356935 
421 1 421 0.901448 0.759578 0.849634 
422 1 422 0.673743 0.505531 0.236676 
423 1 423 0.807363 0.402545 0.534768 
424 1 424 0.798342 0.636253 0.640773 
425 1 425 0.637884 0.63105 0.469022 
426 1 426 0.258821 0.373997 0.706337 
427 1 427 0.830558 0.30196 0.701099 
428 1 428 0.881782 0.516337 0.309751 
429 1 429 0.503388 0.26179 0.428431 
430 1 430 0.799714 0.603557 0.471512 
431 1 431 0.505356 0.339277 0.991663 
432 1 432 0.467098 0.686436 0.982003 
433 1 433 0.843396 0.570838 0.756684 
434 1 434 0.924781 0.0306336 0.449714 
435 1 435 0.0729359 0.368539 0.343633 
436 1 436 0.110736 0.592666 0.738183 
437 1 437 0.0926809 0.897907 0.3326 
438 1 438 0.0639423 0.134307 0.870677 
439 1 439 0.336422 0.101414 0.16311 
440 1 440 0.782908 0.228489 0.241414 
441 1 441 0.467004 0.578541 0.362434 
442 1 442 0.834248 0.737789 0.386269 
443 1 443 0.215374 0.423645 0.918525 
444 1 444 0.304992 0.109559 0.937261 
445 1 445 0.831367 0.414138 0.299958 
446 1 446 0.514452 0.811815 0.910905 
447 1 447 0.740872 0.0912051 0.331124 
448 1 448 0.914472 0.108008 0.382578 
449 1 449 0.402284 0.413871 0.750811 
450 1 450 0.959062 0.0258254 0.181523 
451 1 451 0.268197 0.208184 0.0714125 
452 1 452 0.902418 0.0407153 0.639519 
453 1 453 0.279942 0.798156 0.127703 
454 1 454 0.847137 0.462763 0.0371509 
455 1 455 0.297549 0.35027 0.513003 
456 1 456 0.857927 0.134604 0.978635 
457 1 457 0.680461 0.562658 0.732401 
458 1 458 0.650401 0.0129024 0.254169 
459 1 459 0.812911 0.74786 0.476406 
460 1 460 0.104482 0.0502931 0.239006 
461 1 461 0.925822 0.527651 0.61408 
462 1 462 0.977935 0.78447 0.323539 
463 1 463 0.232822 0.934616 0.542487 
464 1 464 0.361847 0.921512 0.310704 
465 1 465 0.504856 0.573044 0.146392 
466 1 466 0.852738 0.471647 0.711992 
467 1 467 0.440675 0.942206 0.862202 
468 1 468 0.878091 0.195848 0.612035 
469 1 469 0.4118 0.85325 0.768677 
470 1 470 0.660602 0.165509 0.779125 
471 1 471 0.557184 0.4893 0.574375 
472 1 472 0.373599 0.0964981 0.626568 
473 1 473 0.299518 0.152051 0.659476 
474 1 474 0.304565 0.473286 0.446625 
475 1 475 0.350354 0.592144 0.637645 
476 1 476 0.640145 0.104662 0.872098 
477 1 477 0.890225 0.122909 0.24187 
478 1 478 0.72484 0.724685 0.525898 
479 1 479 0.522569 0.0894584 0.510088 
480 1 480 0.27409 0.571319 0.457114 
481 1 481 0.883792 0.732872 0.254445 
482 1 482 0.350113 0.946728 0.697964 
483 1 483 0.0731268 0.0595715 0.165375 
484 1 484 0.99303 0.984082 0.837714 
485 1 485 0.303324 0.608812 0.218297 
486 1 486 0.589601 0.719635 0.428227 
487 1 487 0.0394562 0.332712 0.67688 
488 1 488 0.290918 0.613009 0.988327 
489 1 489 0.228737 0.469288 0.739219 
490 1 490 0.141165 0.231198 0.6981 
491 1 491 0.428959 0.592634 0.798665 
492 1 492 0.612202 0.833852 0.780112 
493 1 493 0.301838 0.372122 0.917431 
494 1 494 0.937439 0.740017 0.0248105 
495 1 495 0.889457 0.867042 0.880678 
496 1 496 0.0700479 0.511233 0.228396 
497 1 497 0.282739 0.632645 0.908396 
498 1 498 0.464579 0.266324 0.172766 
499 1 499 0.67511 0.105023 0.0462575 
500 1 500 0.15894 0.327243 0.677845 
501 1 501 0.441674 0.52834 0.857766 
502 1 502 0.930355 0.849853 0.354866 
503 1 503 0.907904 0.50929 0.491879 
504 1 504 0.575465 0.760071 0.186642 
505 1 505 0.0220282 0.0472352 0.5851 
506 1 506 0.654076 0.65206 0.831823 
507 1 507 0.0323715 0.137475 0.445537 
508 1 508 0.310144 0.415461 0.0271741 
509 1 509 0.445183 0.946166 0.339516 
510 1 510 0.918118 0.275306 0.0297739 
511 1 511 0.0438844 0.598582 0.158452 
512 1 512 0.98012 0.181909 0.814602 
513 1 513 0.389985 0.585497 0.537037 
514 1 514 0.0688609 0.834535 0.235136 
515 1 515 0.219473 0.926552 0.621436 
516 1 516 0.984488 0.977819 0.671358 
517 1 517 0.632184 0.0935736 0.257483 
518 1 518 0.591842 0.832443 0.229726 
519 1 519 0.0968813 0.235238 0.506505 
520 1 520 0.836593 0.870144 0.0844831 
521 1 521 0.590979 0.00987491 0.549938 
522 1 522 0.107143 0.663347 0.828062 
523 1 523 0.356144 0.748514 0.547606 
524 1 524 0.830724 0.605868 0.181041 
525 1 525 0.473152 0.689598 0.105886 
526 1 526 0.883408 0.418261 0.901734 
527 1 527 0.654951 0.871813 0.457768 
528 1 528 0.2007 0.67029 0.517122 
529 1 529 0.783105 0.513895 0.746505 
530 1 530 0.0644498 0.390555 0.105839 
531 1 531 0.0455954 0.842799 0.387873 
532 1 532 0.756613 0.615861 0.908668 
533 1 533 0.288783 0.505885 0.267834 
534 1 534 0.121493 0.569218 0.413883 
535 1 535 0.211797 0.0489747 0.362019 
536 1 536 0.449428 0.863207 0.283883 
537 1 537 0.546001 0.72117 0.527568 
538 1 538 0.243991 0.88345 0.381131 
539 1 539 0.403115 0.827336 0.987822 
540 1 540 0.815959 0.602162 0.085115 
541 1 541 0.64771 0.868411 0.154169 
542 1 542 0.158848 0.724872 0.271939 
543 1 543 0.671044 0.508458 0.906307 
544 1 544 0.35155 0.300364 0.453922 
545 1 545 0.815076 0.340933 0.582698 
546 1 546 0.984756 0.107045 0.0221962 
547 1 547 0.640145 0.378761 0.898311 
548 1 548 0.0516847 0.713806 0.855007 
549 1 549 0.66011 0.221321 0.932781 
550 1 550 0.612254 0.58315 0.787319 
551 1 551 0.640801 0.68363 0.627899 
552 1 552 0.59313 0.367035 0.125519 
553 1 553 0.885193 0.83526 0.274802 
554 1 554 0.377969 0.668429 0.468215 
555 1 555 0.996393 0.0981819 0.656243 
556 1 556 0.607172 0.383656 0.576093 
557 1 557 0.306588 0.895097 0.539779 
558 1 558 0.530078 0.499214 0.0761017 
559 1 559 0.84569 0.489669 0.215972 
560 1 560 0.0639945 0.0485749 0.0125224 
561 1 561 0.361854 0.79827 0.426557 
562 1 562 0.0681422 0.360684 0.434082 
563 1 563 0.93326 0.0105174 0.758224 
564 1 564 0.762203 0.791872 0.42998 
565 1 565 0.216122 0.976675 0.191249 
566 1 566 0.259176 0.00542446 0.70126 
567 1 567 0.63087 0.774643 0.0959878 
568 1 568 0.78192 0.253556 0.956664 
569 1 569 0.00805088 0.598787 0.439518 
570 1 570 0.344678 0.462241 0.652325 
571 1 571 0.0758851 0.96833 0.164363 
572 1 572 0.273032 0.283334 0.449153 
573 1 573 0.17003 0.548128 0.654997 
574 1 574 0.904816 0.669204 0.41514 
575 1 575 0.032788 0.0393427 0.472602 
576 1 576 0.864772 0.891327 0.98772 
577 1 577 0.230461 0.0496858 0.830842 
578 1 578 0.715822 0.762763 0.644628 
579 1 579 0.100305 0.82659 0.582253 
580 1 580 0.621666 0.772867 0.307777 
581 1 581 0.23299 0.173624 0.955223 
582 1 582 0.31083 0.754359 0.470421 
583 1 583 0.535989 0.207017 0.901497 
584 1 584 0.13137 0.19422 0.953 
585 1 585 0.0458039 0.936533 0.237701 
586 1 586 0.279774 0.887584 0.0728738 
587 1 587 0.566952 0.182609 0.484233 
588 1 588 0.434121 0.348105 0.805631 
589 1 589 0.153761 0.0377858 0.942151 
590 1 590 0.770229 0.85824 0.683637 
591 1 591 0.360248 0.552507 0.916308 
592 1 592 0.754814 0.964927 0.520935 
593 1 593 0.699701 0.209926 0.511962 
594 1 594 0.125824 0.277258 0.842108 
595 1 595 0.395975 0.283505 0.386807 
596 1 596 0.42937 0.012618 0.99603 
597 1 597 0.345593 0.500824 0.73941 
598 1 598 0.769542 0.975635 0.297927 
599 1 599 0.322862 0.800239 0.332556 
600 1 600 0.235467 0.117169 0.498247 
601 1 601 0.943393 0.511937 0.700445 
602 1 602 0.123007 0.0138468 0.056649 
603 1 603 0.375909 0.808227 0.591595 
604 1 604 0.257582 0.677445 0.406514 
605 1 605 0.0430789 0.43812 0.804407 
606 1 606 0.791949 0.0139181 0.0395038 
607 1 607 0.71529 0.430867 0.25712 
608 1 608 0.695885 0.644959 0.314702 
609 1 609 0.18894 0.077701 0.274679 
610 1 610 0.523856 0.969634 0.362153 
611 1 611 0.379882 0.867447 0.190844 
612 1 612 0.728971 0.272172 0.442793 
613 1 613 0.344663 0.904906 0.4612 
614 1 614 0.736829 0.716504 0.759096 
615 1 615 0.709581 0.445975 0.140744 
616 1 616 0.945679 0.78862 0.210035 
617 1 617 0.710658 0.353142 0.605597 
618 1 618 0.805494 0.656785 0.277978 
619 1 619 0.940437 0.411641 0.240041 
620 1 620 0.85039 0.817097 0.511731 
621 1 621 0.691566 0.848835 0.0896195 
622 1 622 0.13786 0.606615 0.196648 
623 1 623 0.949449 0.560585 0.330872 
624 1 624 0.182611 0.0286843 0.142818 
625 1 625 0.37679 0.315969 0.172804 
626 1 626 0.969283 0.0510079 0.372847 
627 1 627 0.217455 0.299881 0.776957 
628 1 628 0.479112 0.954765 0.206988 
629 1 629 0.777633 0.898811 0.908882 
630 1 630 0.262728 0.802471 0.443513 
631 1 631 0.108861 0.687087 0.701547 
632 1 632 0.0747753 0.434254 0.598951 
633 1 633 0.17412 0.383568 0.794045 
634 1 634 0.448215 0.500928 0.407623 
635 1 635 0.285352 0.486359 0.918582 
636 1 636 0.16545 0.221259 0.229032 
637 1 637 0.791878 0.561656 0.870198 
638 1 638 0.450463 0.436083 0.621142 
639 1 639 0.382581 0.0851575 0.999326 
640 1 640 0.296831 0.198671 0.47407 
641 1 641 0.933632 0.440618 0.765375 
642 1 642 0.98766 0.12034 0.248969 
643 1 643 0.197534 0.725967 0.70269 
644 1 644 0.745538 0.364682 0.384901 
645 1 645 0.622616 0.544708 0.534801 
646 1 646 0.77038 0.232336 0.86332 
647 1 647 0.515566 0.863195 0.704348 
648 1 648 0.126761 0.742415 0.632971 
649 1 649 0.976635 0.116054 0.934205 
650 1 650 0.110713 0.162662 0.612546 
651 1 651 0.00316633 0.708805 0.598742 
652 1 652 0.698228 0.811964 0.526684 
653 1 653 0.835988 0.0935004 0.56509 
654 1 654 0.00695416 0.351073 0.483414 
655 1 655 0.394476 0.85113 0.345912 
656 1 656 0.543 0.198362 0.572326 
657 1 657 0.0806553 0.0194029 0.707762 
658 1 658 0.0841536 0.674203 0.000530393 
659 1 659 0.674504 0.438487 0.356093 
660 1 660 0.943051 0.914724 0.820713 
661 1 661 0.449276 0.0980626 0.690571 
662 1 662 0.587258 0.108254 0.976642 
663 1 663 0.156689 0.914868 0.482911 
664 1 664 0.293973 0.805319 0.542793 
665 1 665 0.221807 0.53619 0.955385 
666 1 666 0.0505889 0.184223 0.0467699 
667 1 667 0.394845 0.307759 0.556616 
668 1 668 0.435616 0.749664 0.959652 
669 1 669 0.56545 0.0401064 0.294059 
670 1 670 0.495855 0.729077 0.303381 
671 1 671 0.959822 0.585051 0.750449 
672 1 672 0.987333 0.948719 0.540214 
673 1 673 0.691506 0.875525 0.932972 
674 1 674 0.176427 0.741504 0.164015 
675 1 675 0.899869 0.548658 0.0474482 
676 1 676 0.975884 0.595043 0.541272 
677 1 677 0.198338 0.803312 0.899353 
678 1 678 0.783529 0.0242083 0.869733 
679 1 679 0.819016 0.0556406 0.414069 
680 1 680 0.347035 0.20856 0.905788 
681 1 681 0.695794 0.526047 0.830552 
682 1 682 0.00391951 0.47053 0.987535 
683 1 683 0.451973 0.0533312 0.881471 
684 1 684 0.426965 0.92831 0.119843 
685 1 685 0.677717 0.928461 0.0394771 
686 1 686 0.759693 0.868563 0.528884 
687 1 687 0.0708033 0.0514268 0.921819 
688 1 688 0.629356 0.200072 0.628214 
689 1 689 0.0129264 0.273425 0.0695576 
690 1 690 0.513012 0.442273 0.997172 
691 1 691 0.361733 0.428398 0.392873 
692 1 692 0.239703 0.290628 0.228107 
693 1 693 0.0242187 0.529481 0.74974 
694 1 694 0.640277 0.810783 0.612424 
695 1 695 0.198123 0.632591 0.608513 
696 1 696 0.638861 0.391879 0.990054 
697 1 697 0.29879 0.896347 0.281519 
698 1 698 0.559924 0.363223 0.797214 
699 1 699 0.27063 0.0734262 0.584098 
700 1 700 0.996581 0.915557 0.307331 
701 1 701 0.072144 0.817031 0.713201 
702 1 702 0.887201 0.885073 0.177239 
703 1 703 0.340724 0.784846 0.0343603 
704 1 704 0.985726 0.561519 0.217156 
705 1 705 0.00674851 0.181119 0.130938 
706 1 706 0.746996 0.230579 0.316094 
707 1 707 0.417502 0.55506 0.126089 
708 1 708 0.335215 0.503517 0.991692 
709 1 709 0.552209 0.663744 0.136434 
710 1 710 0.950472 0.133709 0.157803 
711 1 711 0.677341 0.0666803 0.669058 
712 1 712 0.0733541 0.322562 0.0398742 
713 1 713 0.751033 0.401918 0.931409 
714 1 714 0.0115377 0.406974 0.697194 
715 1 715 0.562057 0.837227 0.351186 
716 1 716 0.208966 0.041941 0.037925 
717 1 717 0.147978 0.516817 0.144958 
718 1 718 0.694077 0.0201462 0.550534 
719 1 719 0.00682402 0.509965 0.436843 
720 1 720 0.585433 0.071803 0.767291 
721 1 721 0.285646 0.165694 0.552533 
722 1 722 0.924468 0.389509 0.0372955 
723 1 723 0.29131 0.695834 0.784272 
724 1 724 0.54448 0.506192 0.468451 
725 1 725 0.783943 0.781267 0.00189416 
726 1 726 0.603245 0.432736 0.76984 
727 1 727 0.0902097 0.640196 0.472882 
728 1 728 0.0246411 0.655935 0.0787807 
729 1 729 0.115956 0.230749 0.770097 
730 1 730 0.819563 0.778849 0.871779 
731 1 731 0.144393 0.244542 0.447143 
732 1 732 0.689086 0.194177 0.211154 
733 1 733 0.30283 0.764674 0.876673 
734 1 734 0.52578 0.352286 0.900882 
735 1 735 0.2037 0.735568 0.5816 
736 1 736 0.135425 0.72106 0.515514 
737 1 737 0.762002 0.978514 0.734941 
738 1 738 0.300211 0.658065 0.469979 
739 1 739 0.969334 0.652615 0.878573 
740 1 740 0.889979 0.975712 0.920594 
741 1 741 0.941339 0.0133353 0.300567 
742 1 742 0.755586 0.858433 0.158491 
743 1 743 0.0415337 0.227662 0.207608 
744 1 744 0.536519 0.120894 0.684688 
745 1 745 0.680423 0.283592 0.848277 
746 1 746 0.556812 0.986638 0.178909 
747 1 747 0.529097 0.474169 0.915228 
748 1 748 0.000245172 0.923389 0.427942 
749 1 749 0.763895 0.788673 0.33896 
750 1 750 0.497337 0.564214 0.254415 
751 1 751 0.463284 0.357953 0.665998 
752 1 752 0.724931 0.254797 0.150568 
753 1 753 0.253521 0.262405 0.973215 
754 1 754 0.566607 0.291944 0.844809 
755 1 755 0.375747 0.328577 0.643066 
756 1 756 0.311247 0.929835 0.164091 
757 1 757 0.570225 0.779847 0.992818 
758 1 758 0.644673 0.306868 0.664309 
759 1 759 0.892335 0.208508 0.980342 
760 1 760 0.167872 0.94038 0.0901183 
761 1 761 0.0620233 0.869742 0.119838 
762 1 762 0.352937 0.33895 0.722881 
763 1 763 0.194506 0.549994 0.047474 
764 1 764 0.423867 0.163219 0.989567 
765 1 765 0.142603 0.585586 0.992791 
766 1 766 0.0361399 0.671559 0.540459 
767 1 767 0.251209 0.730505 0.343299 
768 1 768 0.753996 0.0915912 0.954727 
769 1 769 0.11018 0.931374 0.779774 
770 1 770 0.467987 0.0750308 0.403649 
771 1 771 0.756794 0.295138 0.0613691 
772 1 772 0.456266 0.105087 0.580343 
773 1 773 0.0604861 0.887433 0.504069 
774 1 774 0.400429 0.367664 0.293223 
775 1 775 0.295297 0.669724 0.575635 
776 1 776 0.881286 0.514581 0.951827 
777 1 777 0.792336 0.832277 0.8297 
778 1 778 0.715433 0.159409 0.372612 
779 1 779 0.658581 0.461179 0.586558 
780 1 780 0.22773 0.258603 0.668232 
781 1 781 0.285886 0.273586 0.582401 
782 1 782 0.792153 0.0237737 0.161922 
783 1 783 0.95049 0.721672 0.530073 
784 1 784 0.00703384 0.323443 0.195933 
785 1 785 0.00661327 0.457913 0.540631 
786 1 786 0.246073 0.942392 0.952817 
787 1 787 0.336881 0.15939 0.0373475 
788 1 788 0.574204 0.0948112 0.35057 