ITEM: TIMESTEP
40000000
ITEM: NUMBER OF ATOMS
26000
ITEM: BOX BOUNDS pp pp pp
2.2312213545772307e-02 6.3691579788136288e+01
2.2312213545772307e-02 6.3691579788136288e+01
2.2312213545772307e-02 6.3691579788136288e+01
ITEM: ATOMS id type mol xs ys zs 
1 1 1 0.469509 0.300839 0.227585 
2 2 1 0.456379 0.307688 0.235365 
3 2 1 0.482145 0.311037 0.233065 
4 2 1 0.467708 0.302136 0.210994 
5 1 1 0.474401 0.277207 0.233653 
6 2 1 0.473733 0.276091 0.250143 
7 1 1 0.45911 0.260487 0.225928 
8 2 1 0.460984 0.261766 0.208991 
9 1 1 0.463958 0.237385 0.233993 
10 2 1 0.479792 0.234619 0.227575 
11 1 1 0.46296 0.231763 0.257888 
12 2 1 0.474226 0.240441 0.267066 
13 2 1 0.446906 0.236249 0.262035 
14 2 1 0.464672 0.215325 0.260134 
15 1 1 0.498319 0.272697 0.231241 
16 2 1 0.50321 0.27248 0.214854 
17 2 1 0.507934 0.285389 0.238618 
18 2 1 0.502779 0.258049 0.237274 
19 1 1 0.435314 0.26573 0.229902 
20 2 1 0.42439 0.257639 0.21793 
21 2 1 0.428525 0.261086 0.245 
22 2 1 0.432166 0.282517 0.227473 
23 1 1 0.448884 0.22168 0.223378 
24 2 1 0.453323 0.205365 0.225185 
25 2 1 0.433125 0.224014 0.229808 
26 2 1 0.449679 0.224952 0.206188 
27 1 2 0.97583 0.676841 0.54994 
28 2 2 0.977251 0.660148 0.546767 
29 2 2 0.96845 0.683876 0.535764 
30 2 2 0.992372 0.682428 0.549809 
31 1 2 0.963526 0.679159 0.570944 
32 2 2 0.947445 0.675143 0.56638 
33 1 2 0.971597 0.664867 0.588416 
34 2 2 0.968245 0.67314 0.602544 
35 1 2 0.956656 0.644259 0.589385 
36 2 2 0.940602 0.648697 0.591097 
37 1 2 0.959764 0.629936 0.569061 
38 2 2 0.953569 0.633555 0.553642 
39 2 2 0.976307 0.626698 0.568287 
40 2 2 0.953369 0.614729 0.572615 
41 1 2 0.961763 0.702777 0.578129 
42 2 2 0.954978 0.713033 0.56645 
43 2 2 0.95093 0.703655 0.59197 
44 2 2 0.976936 0.708396 0.580417 
45 1 2 0.994888 0.662633 0.588865 
46 2 2 0.00340805 0.677126 0.589407 
47 2 2 0.998276 0.652003 0.602431 
48 2 2 -0.00134044 0.65337 0.575082 
49 1 2 0.961378 0.632009 0.609115 
50 2 2 0.958793 0.641539 0.62381 
51 2 2 0.951684 0.618676 0.612021 
52 2 2 0.977197 0.626914 0.609582 
53 1 3 0.262923 0.778213 0.706251 
54 2 3 0.265627 0.792531 0.715752 
55 2 3 0.251295 0.783687 0.694559 
56 2 3 0.257415 0.765105 0.716019 
57 1 3 0.280388 0.771451 0.692341 
58 2 3 0.283449 0.784163 0.681482 
59 1 3 0.300296 0.765481 0.705668 
60 2 3 0.296365 0.750849 0.713661 
61 1 3 0.320264 0.762186 0.691067 
62 2 3 0.315146 0.753777 0.678159 
63 1 3 0.332258 0.78197 0.68537 
64 2 3 0.340586 0.788361 0.699411 
65 2 3 0.342634 0.778433 0.672569 
66 2 3 0.321773 0.793826 0.682442 
67 1 3 0.271437 0.751648 0.680319 
68 2 3 0.283727 0.747424 0.669114 
69 2 3 0.267455 0.740426 0.692103 
70 2 3 0.257244 0.756054 0.672431 
71 1 3 0.304132 0.782519 0.723583 
72 2 3 0.303503 0.798646 0.717765 
73 2 3 0.291787 0.782934 0.736272 
74 2 3 0.320442 0.783058 0.730082 
75 1 3 0.336437 0.746425 0.701908 
76 2 3 0.339322 0.753727 0.717508 
77 2 3 0.330962 0.731291 0.705385 
78 2 3 0.350727 0.745053 0.69365 
79 1 4 0.580282 0.496863 0.733918 
80 2 4 0.563343 0.493575 0.735873 
81 2 4 0.585472 0.48781 0.720689 
82 2 4 0.585115 0.490723 0.749327 
83 1 4 0.58594 0.520401 0.729683 
84 2 4 0.577899 0.524783 0.715125 
85 1 4 0.577693 0.535387 0.746674 
86 2 4 0.582692 0.527552 0.7615 
87 1 4 0.585248 0.557988 0.748223 
88 2 4 0.601035 0.555056 0.751744 
89 1 4 0.579986 0.571643 0.728439 
90 2 4 0.584876 0.588447 0.730989 
91 2 4 0.5877 0.566289 0.714139 
92 2 4 0.563183 0.574334 0.727013 
93 1 4 0.609039 0.520507 0.725767 
94 2 4 0.617164 0.51398 0.739487 
95 2 4 0.612704 0.509118 0.71327 
96 2 4 0.615371 0.535314 0.722431 
97 1 4 0.552999 0.534692 0.745529 
98 2 4 0.545215 0.544506 0.758175 
99 2 4 0.548735 0.542453 0.731393 
100 2 4 0.545605 0.519095 0.7459 
101 1 4 0.578213 0.569002 0.768981 
102 2 4 0.579925 0.559042 0.782759 
103 2 4 0.590858 0.580021 0.770485 
104 2 4 0.563029 0.577958 0.768145 
105 1 5 0.502792 0.33241 0.283709 
106 2 5 0.493081 0.347909 0.284148 
107 2 5 0.492576 0.320275 0.280262 
108 2 5 0.506984 0.330603 0.300125 
109 1 5 0.524028 0.334277 0.270589 
110 2 5 0.532914 0.345771 0.279673 
111 1 5 0.534786 0.312358 0.271731 
112 2 5 0.523763 0.30017 0.268274 
113 1 5 0.555586 0.310491 0.258146 
114 2 5 0.551792 0.311088 0.241869 
115 1 5 0.570935 0.330627 0.263984 
116 2 5 0.574836 0.331304 0.279967 
117 2 5 0.585247 0.329768 0.255 
118 2 5 0.562924 0.344618 0.258977 
119 1 5 0.520556 0.345048 0.249401 
120 2 5 0.511129 0.335658 0.23909 
121 2 5 0.514055 0.360147 0.251487 
122 2 5 0.535015 0.348369 0.239632 
123 1 5 0.539395 0.306918 0.294582 
124 2 5 0.547334 0.320135 0.302141 
125 2 5 0.523348 0.304833 0.302208 
126 2 5 0.545839 0.292022 0.297561 
127 1 5 0.56601 0.288353 0.259148 
128 2 5 0.573543 0.285151 0.244912 
129 2 5 0.576233 0.287779 0.272687 
130 2 5 0.554549 0.275077 0.262961 
131 1 6 0.178287 0.101763 0.419904 
132 2 6 0.185206 0.094407 0.405693 
133 2 6 0.187959 0.097152 0.432981 
134 2 6 0.16301 0.0959576 0.424532 
135 1 6 0.178434 0.125326 0.416007 
136 2 6 0.166517 0.126784 0.403026 
137 1 6 0.168185 0.138158 0.434663 
138 2 6 0.178189 0.152607 0.436134 
139 1 6 0.146774 0.146667 0.429906 
140 2 6 0.150541 0.156495 0.415906 
141 1 6 0.128117 0.131656 0.426876 
142 2 6 0.122364 0.123711 0.441487 
143 2 6 0.11173 0.138022 0.421085 
144 2 6 0.133896 0.119541 0.416327 
145 1 6 0.199295 0.133965 0.408628 
146 2 6 0.212409 0.128081 0.418877 
147 2 6 0.201649 0.129192 0.392166 
148 2 6 0.201628 0.152594 0.406008 
149 1 6 0.168569 0.128403 0.456261 
150 2 6 0.183029 0.120318 0.460372 
151 2 6 0.165431 0.139431 0.468111 
152 2 6 0.15736 0.115623 0.458073 
153 1 6 0.138733 0.166627 0.443966 
154 2 6 0.151113 0.176559 0.451966 
155 2 6 0.133858 0.179077 0.432683 
156 2 6 0.126818 0.160138 0.454706 
157 1 7 0.116192 0.484946 0.793108 
158 2 7 0.101794 0.478864 0.785569 
159 2 7 0.115194 0.480448 0.809239 
160 2 7 0.113725 0.501357 0.794219 
161 1 7 0.135993 0.47921 0.780197 
162 2 7 0.133158 0.483554 0.763816 
163 1 7 0.157023 0.487744 0.789998 
164 2 7 0.157251 0.483459 0.806372 
165 1 7 0.176305 0.477134 0.778744 
166 2 7 0.173356 0.460692 0.781094 
167 1 7 0.177191 0.482206 0.755311 
168 2 7 0.167033 0.471901 0.746014 
169 2 7 0.173951 0.49765 0.750984 
170 2 7 0.193222 0.479619 0.749593 
171 1 7 0.134602 0.455558 0.778101 
172 2 7 0.119677 0.451134 0.770961 
173 2 7 0.146819 0.449394 0.768556 
174 2 7 0.138128 0.448316 0.792716 
175 1 7 0.155936 0.511635 0.786744 
176 2 7 0.146233 0.517377 0.798841 
177 2 7 0.171839 0.518633 0.790424 
178 2 7 0.149559 0.51643 0.771487 
179 1 7 0.196952 0.481992 0.790636 
180 2 7 0.207151 0.469109 0.786985 
181 2 7 0.20378 0.497025 0.790504 
182 2 7 0.193686 0.477962 0.807408 
183 1 8 0.177101 0.634982 0.256847 
184 2 8 0.18948 0.622689 0.256541 
185 2 8 0.1632 0.627708 0.254018 
186 2 8 0.181777 0.645267 0.243268 
187 1 8 0.176292 0.648471 0.277365 
188 2 8 0.192604 0.654016 0.279996 
189 1 8 0.16174 0.669498 0.277038 
190 2 8 0.145998 0.663916 0.276001 
191 1 8 0.162505 0.680989 0.299246 
192 2 8 0.159636 0.668947 0.310787 
193 1 8 0.183077 0.690431 0.305335 
194 2 8 0.181994 0.693999 0.321319 
195 2 8 0.195843 0.67906 0.304975 
196 2 8 0.188387 0.704732 0.296894 
197 1 8 0.170324 0.633857 0.29547 
198 2 8 0.153078 0.631486 0.297939 
199 2 8 0.17701 0.618997 0.291871 
200 2 8 0.177763 0.638529 0.31056 
201 1 8 0.166969 0.684958 0.259031 
202 2 8 0.184144 0.684131 0.255995 
203 2 8 0.158763 0.680133 0.244636 
204 2 8 0.162118 0.701292 0.260591 
205 1 8 0.145295 0.698363 0.302573 
206 2 8 0.148353 0.71208 0.292374 
207 2 8 0.128841 0.691608 0.300845 
208 2 8 0.146703 0.704936 0.318802 
209 1 9 0.702957 0.702512 0.535803 
210 2 9 0.69834 0.71893 0.53341 
211 2 9 0.708752 0.699611 0.55238 
212 2 9 0.715514 0.69962 0.524494 
213 1 9 0.684299 0.686574 0.534613 
214 2 9 0.673416 0.691554 0.547917 
215 1 9 0.672049 0.688166 0.512315 
216 2 9 0.683889 0.688488 0.500724 
217 1 9 0.65496 0.670208 0.50669 
218 2 9 0.662552 0.655028 0.508847 
219 1 9 0.633708 0.670017 0.518337 
220 2 9 0.635098 0.668876 0.536058 
221 2 9 0.623632 0.683485 0.516648 
222 2 9 0.623125 0.658161 0.513296 
223 1 9 0.691014 0.663939 0.540124 
224 2 9 0.698433 0.656328 0.52625 
225 2 9 0.701529 0.662784 0.553856 
226 2 9 0.677038 0.655754 0.545676 
227 1 9 0.660782 0.709387 0.513346 
228 2 9 0.668631 0.724872 0.513763 
229 2 9 0.650717 0.70859 0.49883 
230 2 9 0.649413 0.710156 0.526086 
231 1 9 0.651086 0.672296 0.482424 
232 2 9 0.665921 0.672413 0.47383 
233 2 9 0.642257 0.659524 0.475617 
234 2 9 0.64161 0.685093 0.478449 
235 1 10 0.270035 0.354408 0.675998 
236 2 10 0.277764 0.369444 0.677728 
237 2 10 0.274133 0.348086 0.660717 
238 2 10 0.252535 0.356984 0.677114 
239 1 10 0.275213 0.339836 0.695183 
240 2 10 0.290687 0.334123 0.692305 
241 1 10 0.276004 0.351016 0.716887 
242 2 10 0.280951 0.340611 0.72961 
243 1 10 0.292926 0.369198 0.717597 
244 2 10 0.292652 0.380895 0.704619 
245 1 10 0.290591 0.382132 0.738421 
246 2 10 0.275279 0.390718 0.740652 
247 2 10 0.293548 0.371601 0.751974 
248 2 10 0.304236 0.392475 0.739765 
249 1 10 0.261139 0.320154 0.693768 
250 2 10 0.245369 0.325475 0.693837 
251 2 10 0.262372 0.314281 0.677033 
252 2 10 0.265596 0.308777 0.705156 
253 1 10 0.253455 0.356388 0.722646 
254 2 10 0.247361 0.368526 0.711797 
255 2 10 0.242308 0.3433 0.723667 
256 2 10 0.25208 0.363722 0.737842 
257 1 10 0.315013 0.358452 0.717398 
258 2 10 0.318203 0.351303 0.701121 
259 2 10 0.3285 0.368463 0.720707 
260 2 10 0.316179 0.345403 0.728375 
261 1 11 0.641147 0.26419 0.926056 
262 2 11 0.641635 0.250083 0.936226 
263 2 11 0.63947 0.259861 0.908618 
264 2 11 0.656296 0.27155 0.928817 
265 1 11 0.624974 0.278937 0.936545 
266 2 11 0.624575 0.292896 0.927372 
267 1 11 0.602151 0.268785 0.938535 
268 2 11 0.604238 0.255783 0.950291 
269 1 11 0.583912 0.281712 0.947007 
270 2 11 0.587391 0.286126 0.963697 
271 1 11 0.580436 0.303174 0.935207 
272 2 11 0.579352 0.299436 0.918682 
273 2 11 0.564202 0.310362 0.939203 
274 2 11 0.59285 0.316268 0.93505 
275 1 11 0.632505 0.284328 0.960638 
276 2 11 0.630441 0.269573 0.969832 
277 2 11 0.649088 0.289564 0.961706 
278 2 11 0.622588 0.296225 0.968061 
279 1 11 0.595174 0.25823 0.916936 
280 2 11 0.60407 0.244176 0.913935 
281 2 11 0.578973 0.253599 0.915724 
282 2 11 0.598811 0.269751 0.904665 
283 1 11 0.56333 0.269787 0.949881 
284 2 11 0.56581 0.25332 0.953727 
285 2 11 0.555103 0.276463 0.963289 
286 2 11 0.55483 0.269594 0.934754 
287 1 12 0.916539 0.442683 0.663481 
288 2 12 0.918597 0.442743 0.680116 
289 2 12 0.931846 0.447524 0.657378 
290 2 12 0.905911 0.454976 0.660565 
291 1 12 0.909459 0.421092 0.655664 
292 2 12 0.923073 0.411464 0.661944 
293 1 12 0.889732 0.410876 0.664116 
294 2 12 0.890771 0.411976 0.681353 
295 1 12 0.869767 0.423468 0.658151 
296 2 12 0.874519 0.440402 0.657408 
297 1 12 0.857701 0.416846 0.636863 
298 2 12 0.845257 0.427466 0.63155 
299 2 12 0.870112 0.419366 0.624139 
300 2 12 0.853321 0.400433 0.635098 
301 1 12 0.911773 0.420104 0.632544 
302 2 12 0.90519 0.40713 0.624341 
303 2 12 0.904126 0.43458 0.625953 
304 2 12 0.928239 0.419366 0.627943 
305 1 12 0.886053 0.387431 0.659488 
306 2 12 0.897806 0.378732 0.667161 
307 2 12 0.869916 0.382809 0.665546 
308 2 12 0.885689 0.383819 0.642663 
309 1 12 0.854116 0.42431 0.675867 
310 2 12 0.848198 0.40848 0.67884 
311 2 12 0.863376 0.429413 0.689743 
312 2 12 0.841494 0.434269 0.670874 
313 1 13 0.153036 0.759714 0.424251 
314 2 13 0.145663 0.774246 0.420259 
315 2 13 0.15155 0.75493 0.440036 
316 2 13 0.170202 0.763945 0.424229 
317 1 13 0.149545 0.742763 0.407465 
318 2 13 0.151066 0.749465 0.392812 
319 1 13 0.167716 0.7266 0.406717 
320 2 13 0.167734 0.723677 0.42358 
321 1 13 0.162226 0.705952 0.395023 
322 2 13 0.146598 0.701401 0.399392 
323 1 13 0.163858 0.708094 0.371089 
324 2 13 0.157024 0.695065 0.363758 
325 2 13 0.157761 0.723261 0.364967 
326 2 13 0.180435 0.707005 0.365486 
327 1 13 0.12699 0.733562 0.410315 
328 2 13 0.12335 0.722479 0.397826 
329 2 13 0.124841 0.723092 0.425154 
330 2 13 0.115749 0.746389 0.410608 
331 1 13 0.190082 0.734882 0.401824 
332 2 13 0.200525 0.722436 0.397095 
333 2 13 0.188031 0.747901 0.389925 
334 2 13 0.196031 0.742309 0.414995 
335 1 13 0.175688 0.687956 0.404204 
336 2 13 0.192603 0.690846 0.406453 
337 2 13 0.16891 0.683585 0.419786 
338 2 13 0.175748 0.673962 0.394551 
339 1 14 0.790261 0.710372 0.0628694 
340 2 14 0.778089 0.718075 0.0545262 
341 2 14 0.79008 0.714205 0.0794929 
342 2 14 0.806257 0.715752 0.0578396 
343 1 14 0.789447 0.687031 0.0583211 
344 2 14 0.789791 0.685007 0.0413652 
345 1 14 0.80778 0.674799 0.0675 
346 2 14 0.806522 0.657167 0.0620509 
347 1 14 0.831408 0.679516 0.0595153 
348 2 14 0.835232 0.695948 0.0612557 
349 1 14 0.846796 0.665061 0.0704529 
350 2 14 0.848483 0.671153 0.0868751 
351 2 14 0.843509 0.649058 0.0713251 
352 2 14 0.863608 0.668799 0.0649414 
353 1 14 0.767466 0.676739 0.0638638 
354 2 14 0.76606 0.660718 0.0571331 
355 2 14 0.763155 0.677403 0.080778 
356 2 14 0.754319 0.684931 0.0550154 
357 1 14 0.806648 0.676388 0.0915018 
358 2 14 0.790909 0.67855 0.0970509 
359 2 14 0.813788 0.662419 0.0994861 
360 2 14 0.816132 0.689447 0.0967061 
361 1 14 0.833196 0.674583 0.0358346 
362 2 14 0.831171 0.658162 0.0330359 
363 2 14 0.820936 0.683056 0.0271153 
364 2 14 0.84821 0.679743 0.029118 
365 1 15 0.912212 0.821648 0.947079 
366 2 15 0.904934 0.8324 0.936186 
367 2 15 0.89931 0.815826 0.956852 
368 2 15 0.923038 0.83037 0.95626 
369 1 15 0.923694 0.803663 0.934985 
370 2 15 0.928863 0.793422 0.947448 
371 1 15 0.90717 0.791634 0.920607 
372 2 15 0.899493 0.804314 0.912693 
373 1 15 0.917737 0.77735 0.904773 
374 2 15 0.929808 0.785362 0.896269 
375 1 15 0.927566 0.75802 0.915527 
376 2 15 0.938855 0.763948 0.927348 
377 2 15 0.915426 0.747093 0.922643 
378 2 15 0.935438 0.748907 0.903232 
379 1 15 0.943571 0.812179 0.925431 
380 2 15 0.954693 0.800503 0.923965 
381 2 15 0.941316 0.822269 0.911619 
382 2 15 0.952043 0.824396 0.935897 
383 1 15 0.89025 0.780192 0.933457 
384 2 15 0.897648 0.771204 0.945902 
385 2 15 0.880347 0.792726 0.940678 
386 2 15 0.880156 0.771192 0.924104 
387 1 15 0.90321 0.769117 0.886765 
388 2 15 0.891162 0.780611 0.883326 
389 2 15 0.910107 0.763983 0.872924 
390 2 15 0.894211 0.75597 0.892051 
391 1 16 0.162214 0.467947 0.403091 
392 2 16 0.178344 0.464045 0.40419 
393 2 16 0.162272 0.477247 0.388707 
394 2 16 0.158077 0.479893 0.414451 
395 1 16 0.145991 0.4503 0.400505 
396 2 16 0.15005 0.437573 0.411759 
397 1 16 0.12356 0.458188 0.403457 
398 2 16 0.112408 0.446924 0.39645 
399 1 16 0.116944 0.460027 0.427772 
400 2 16 0.126766 0.471357 0.434923 
401 1 16 0.093091 0.466452 0.428455 
402 2 16 0.0856607 0.464449 0.44405 
403 2 16 0.0938204 0.483253 0.427021 
404 2 16 0.081723 0.459592 0.417876 
405 1 16 0.149749 0.438729 0.379127 
406 2 16 0.165864 0.434413 0.380114 
407 2 16 0.139895 0.425092 0.377942 
408 2 16 0.14719 0.448394 0.365308 
409 1 16 0.119791 0.478279 0.392907 
410 2 16 0.122051 0.475088 0.376468 
411 2 16 0.103438 0.482665 0.392974 
412 2 16 0.127465 0.493 0.397076 
413 1 16 0.120139 0.439119 0.440483 
414 2 16 0.115875 0.443231 0.457019 
415 2 16 0.108395 0.427404 0.436175 
416 2 16 0.135387 0.431844 0.441439 
417 1 17 0.229831 0.112411 0.349605 
418 2 17 0.224983 0.101455 0.360134 
419 2 17 0.22823 0.126054 0.359779 
420 2 17 0.218816 0.113818 0.336524 
421 1 17 0.252092 0.106922 0.342116 
422 2 17 0.257097 0.118168 0.330076 
423 1 17 0.266409 0.110306 0.361682 
424 2 17 0.282617 0.106665 0.356683 
425 1 17 0.267839 0.133647 0.370364 
426 2 17 0.255703 0.136681 0.381648 
427 1 17 0.288271 0.13886 0.382554 
428 2 17 0.302802 0.137945 0.373181 
429 2 17 0.288601 0.154032 0.39072 
430 2 17 0.292065 0.1273 0.393638 
431 1 17 0.254022 0.0855953 0.330839 
432 2 17 0.250951 0.071555 0.340291 
433 2 17 0.244115 0.0852328 0.317056 
434 2 17 0.27042 0.0846206 0.326169 
435 1 17 0.263572 0.0943654 0.379561 
436 2 17 0.267173 0.0781856 0.373896 
437 2 17 0.273425 0.0968581 0.393135 
438 2 17 0.246934 0.0961805 0.385556 
439 1 17 0.265678 0.151547 0.354565 
440 2 17 0.265165 0.165866 0.3633 
441 2 17 0.280412 0.151464 0.344718 
442 2 17 0.250051 0.151771 0.346481 
443 1 18 0.56877 0.365712 0.70265 
444 2 18 0.555376 0.357334 0.707828 
445 2 18 0.57312 0.375463 0.716431 
446 2 18 0.56631 0.374778 0.689927 
447 1 18 0.588321 0.352137 0.699866 
448 2 18 0.591731 0.345993 0.71542 
449 1 18 0.585349 0.335394 0.68269 
450 2 18 0.599376 0.326462 0.684275 
451 1 18 0.567468 0.319396 0.685366 
452 2 18 0.562977 0.3193 0.701005 
453 1 18 0.546435 0.326552 0.674954 
454 2 18 0.542636 0.343365 0.678713 
455 2 18 0.546287 0.325973 0.657668 
456 2 18 0.534243 0.316898 0.681381 
457 1 18 0.605698 0.367144 0.69363 
458 2 18 0.618844 0.357888 0.687376 
459 2 18 0.601323 0.374536 0.679489 
460 2 18 0.609046 0.378352 0.705564 
461 1 18 0.588201 0.341604 0.659749 
462 2 18 0.604074 0.347887 0.655005 
463 2 18 0.586819 0.327498 0.650536 
464 2 18 0.577023 0.353441 0.654123 
465 1 18 0.57335 0.297176 0.676604 
466 2 18 0.588556 0.292348 0.682243 
467 2 18 0.564338 0.284829 0.682332 
468 2 18 0.571398 0.297395 0.660018 
469 1 19 0.919569 0.652924 0.898684 
470 2 19 0.930672 0.648011 0.886196 
471 2 19 0.92588 0.665875 0.908203 
472 2 19 0.916251 0.640092 0.908723 
473 1 19 0.898254 0.658804 0.887202 
474 2 19 0.901598 0.672309 0.877513 
475 1 19 0.886643 0.641833 0.87333 
476 2 19 0.871203 0.647142 0.871633 
477 1 19 0.893586 0.641271 0.850384 
478 2 19 0.910592 0.638114 0.851603 
479 1 19 0.887544 0.622716 0.837905 
480 2 19 0.871148 0.621923 0.833389 
481 2 19 0.894008 0.623196 0.821638 
482 2 19 0.891852 0.607812 0.843735 
483 1 19 0.882513 0.667102 0.904463 
484 2 19 0.882584 0.656981 0.918376 
485 2 19 0.88841 0.682043 0.911168 
486 2 19 0.866181 0.669085 0.898628 
487 1 19 0.885261 0.620272 0.88478 
488 2 19 0.873656 0.608144 0.879178 
489 2 19 0.900508 0.612494 0.88643 
490 2 19 0.880243 0.621436 0.901539 
491 1 19 0.887656 0.66102 0.839064 
492 2 19 0.874977 0.658099 0.830008 
493 2 19 0.884615 0.674304 0.848236 
494 2 19 0.898163 0.666202 0.827923 
495 1 20 0.772401 0.475294 0.0207782 
496 2 20 0.762942 0.462834 0.0290273 
497 2 20 0.761587 0.48292 0.0104985 
498 2 20 0.784255 0.469387 0.012002 
499 1 20 0.78043 0.490644 0.0379833 
500 2 20 0.788057 0.502447 0.0294703 
501 1 20 0.764151 0.504113 0.0492237 
502 2 20 0.773477 0.509359 0.0630404 
503 1 20 0.755332 0.523404 0.0381033 
504 2 20 0.74795 0.517327 0.0233533 
505 1 20 0.737858 0.532645 0.0523665 
506 2 20 0.744722 0.53873 0.0676561 
507 2 20 0.732836 0.54756 0.0447748 
508 2 20 0.72329 0.523364 0.0556332 
509 1 20 0.79542 0.4784 0.0519053 
510 2 20 0.788972 0.469486 0.0647524 
511 2 20 0.80511 0.466573 0.043139 
512 2 20 0.8067 0.488369 0.0600402 
513 1 20 0.745626 0.488634 0.0559521 
514 2 20 0.735797 0.484208 0.0432804 
515 2 20 0.752287 0.473478 0.0597202 
516 2 20 0.73858 0.492592 0.0713794 
517 1 20 0.771545 0.540624 0.0322673 
518 2 20 0.786435 0.535461 0.0243222 
519 2 20 0.765351 0.552389 0.0224988 
520 2 20 0.774054 0.549811 0.0467737 
521 1 21 0.482649 0.528737 0.651443 
522 2 21 0.487605 0.543617 0.656084 
523 2 21 0.477785 0.530049 0.634669 
524 2 21 0.467914 0.525951 0.659556 
525 1 21 0.500483 0.513741 0.656602 
526 2 21 0.497494 0.498214 0.649112 
527 1 21 0.522457 0.522311 0.648578 
528 2 21 0.532855 0.51326 0.65914 
529 1 21 0.527086 0.514652 0.626275 
530 2 21 0.523965 0.497798 0.625932 
531 1 21 0.516103 0.525646 0.608887 
532 2 21 0.498414 0.52553 0.607726 
533 2 21 0.520539 0.541991 0.608564 
534 2 21 0.520852 0.520657 0.593068 
535 1 21 0.502193 0.507903 0.680054 
536 2 21 0.508032 0.519963 0.690587 
537 2 21 0.487136 0.506932 0.685213 
538 2 21 0.511787 0.493595 0.684284 
539 1 21 0.52843 0.545738 0.650904 
540 2 21 0.5438 0.550972 0.645399 
541 2 21 0.518452 0.557917 0.644159 
542 2 21 0.528803 0.546973 0.668785 
543 1 21 0.551617 0.514171 0.620633 
544 2 21 0.557906 0.529629 0.62153 
545 2 21 0.560343 0.504344 0.631252 
546 2 21 0.555306 0.508666 0.60479 
547 1 22 0.890085 0.74185 0.332507 
548 2 22 0.893694 0.72534 0.329272 
549 2 22 0.905359 0.748969 0.334434 
550 2 22 0.879728 0.743376 0.346865 
551 1 22 0.879805 0.750565 0.313291 
552 2 22 0.892187 0.747763 0.300872 
553 1 22 0.858497 0.738671 0.308626 
554 2 22 0.851566 0.748388 0.295899 
555 1 22 0.861331 0.715732 0.303047 
556 2 22 0.866892 0.707673 0.31704 
557 1 22 0.840702 0.705164 0.29759 
558 2 22 0.826102 0.711314 0.305557 
559 2 22 0.836465 0.70437 0.281263 
560 2 22 0.841333 0.689978 0.304173 
561 1 22 0.87694 0.775144 0.31534 
562 2 22 0.865705 0.784121 0.306015 
563 2 22 0.873345 0.779305 0.331758 
564 2 22 0.892043 0.782574 0.312412 
565 1 22 0.842359 0.741732 0.327894 
566 2 22 0.846776 0.733964 0.342348 
567 2 22 0.8417 0.758601 0.329149 
568 2 22 0.826246 0.737979 0.323899 
569 1 22 0.877715 0.712274 0.284892 
570 2 22 0.894772 0.71203 0.288623 
571 2 22 0.875021 0.694989 0.279849 
572 2 22 0.874918 0.725078 0.273795 
573 1 23 0.463066 0.407935 0.876772 
574 2 23 0.45189 0.416772 0.868001 
575 2 23 0.462594 0.414189 0.892607 
576 2 23 0.477431 0.411606 0.869911 
577 1 23 0.456233 0.384238 0.875104 
578 2 23 0.456343 0.380914 0.858084 
579 1 23 0.470854 0.368413 0.885956 
580 2 23 0.459893 0.355013 0.890904 
581 1 23 0.487215 0.359865 0.870131 
582 2 23 0.478164 0.353017 0.857646 
583 1 23 0.504402 0.375212 0.860273 
584 2 23 0.497312 0.388898 0.853557 
585 2 23 0.517064 0.37905 0.872214 
586 2 23 0.513773 0.369793 0.846217 
587 1 23 0.433971 0.384831 0.885492 
588 2 23 0.4333 0.394804 0.898758 
589 2 23 0.421735 0.389477 0.875837 
590 2 23 0.428053 0.36907 0.890267 
591 1 23 0.480958 0.375709 0.906429 
592 2 23 0.489105 0.363095 0.913742 
593 2 23 0.492749 0.387961 0.904151 
594 2 23 0.470593 0.382084 0.919373 
595 1 23 0.498942 0.341392 0.878498 
596 2 23 0.508105 0.33345 0.865407 
597 2 23 0.510079 0.343993 0.892159 
598 2 23 0.488488 0.328222 0.882497 
599 1 24 0.585812 0.977028 0.944219 
600 2 24 0.587734 0.990669 0.952783 
601 2 24 0.570541 0.971341 0.948147 
602 2 24 0.597296 0.96552 0.948976 
603 1 24 0.587808 0.978588 0.919932 
604 2 24 0.576275 0.990026 0.913924 
605 1 24 0.610651 0.986528 0.91504 
606 2 24 0.62009 0.972553 0.91785 
607 1 24 0.61351 0.991301 0.890429 
608 2 24 0.610067 0.976885 0.880476 
609 1 24 0.600508 0.0100212 0.882268 
610 2 24 0.602745 0.0134888 0.866057 
611 2 24 0.582881 0.00795634 0.884735 
612 2 24 0.605588 0.0225473 0.892036 
613 1 24 0.583841 0.956585 0.909632 
614 2 24 0.589204 0.945312 0.921753 
615 2 24 0.567431 0.953229 0.90611 
616 2 24 0.594486 0.952578 0.896407 
617 1 24 0.618799 0.00364122 0.929507 
618 2 24 0.635135 0.00328477 0.926615 
619 2 24 0.610408 0.0183783 0.927173 
620 2 24 0.618129 -4.68434e-05 0.945743 
621 1 24 0.636944 0.99312 0.885369 
622 2 24 0.638127 0.993689 0.867662 
623 2 24 0.643171 0.00720652 0.891751 
624 2 24 0.644458 0.980031 0.892806 
625 1 25 0.255517 0.254395 0.359941 
626 2 25 0.252956 0.271446 0.357973 
627 2 25 0.249324 0.247526 0.345645 
628 2 25 0.244212 0.250297 0.372248 
629 1 25 0.277657 0.246199 0.365008 
630 2 25 0.280046 0.248846 0.381012 
631 1 25 0.279175 0.221851 0.363995 
632 2 25 0.274582 0.218742 0.347818 
633 1 25 0.300938 0.213569 0.366994 
634 2 25 0.310062 0.223908 0.356572 
635 1 25 0.308822 0.216504 0.389437 
636 2 25 0.325537 0.212692 0.390939 
637 2 25 0.307029 0.23095 0.397235 
638 2 25 0.301135 0.204759 0.398504 
639 1 25 0.292805 0.259928 0.35242 
640 2 25 0.293333 0.256805 0.335719 
641 2 25 0.28905 0.276524 0.354502 
642 2 25 0.308561 0.257314 0.35735 
643 1 25 0.263823 0.209998 0.379016 
644 2 25 0.267162 0.19449 0.383008 
645 2 25 0.262173 0.218128 0.393292 
646 2 25 0.248233 0.210548 0.372376 
647 1 25 0.30383 0.190755 0.360025 
648 2 25 0.300516 0.189564 0.342911 
649 2 25 0.319866 0.185485 0.361821 
650 2 25 0.295659 0.17883 0.369282 
651 1 26 0.269575 0.818705 0.16678 
652 2 26 0.280298 0.833012 0.165252 
653 2 26 0.278049 0.808453 0.176012 
654 2 26 0.2685 0.811675 0.15141 
655 1 26 0.247708 0.822564 0.176777 
656 2 26 0.238328 0.808845 0.175143 
657 1 26 0.250349 0.826626 0.201723 
658 2 26 0.255042 0.843425 0.204581 
659 1 26 0.230691 0.825754 0.214907 
660 2 26 0.21951 0.832811 0.203956 
661 1 26 0.224291 0.802677 0.219472 
662 2 26 0.20753 0.800095 0.221936 
663 2 26 0.231183 0.791411 0.208534 
664 2 26 0.232231 0.799122 0.233529 
665 1 26 0.235205 0.838032 0.164299 
666 2 26 0.239186 0.836174 0.147441 
667 2 26 0.217289 0.8355 0.165559 
668 2 26 0.237739 0.855283 0.167078 
669 1 26 0.26939 0.813809 0.211215 
670 2 26 0.284985 0.818322 0.20508 
671 2 26 0.270232 0.815322 0.227926 
672 2 26 0.267262 0.796796 0.208668 
673 1 26 0.231097 0.839667 0.234254 
674 2 26 0.214602 0.840103 0.240237 
675 2 26 0.240977 0.833562 0.247466 
676 2 26 0.236666 0.856457 0.230986 
677 1 27 0.313309 0.580047 0.095611 
678 2 27 0.323619 0.591822 0.089886 
679 2 27 0.320236 0.565505 0.0898108 
680 2 27 0.297755 0.583281 0.0879197 
681 1 27 0.312756 0.581278 0.119207 
682 2 27 0.30629 0.566057 0.12253 
683 1 27 0.333016 0.582278 0.132069 
684 2 27 0.328965 0.586726 0.147912 
685 1 27 0.344653 0.560753 0.1337 
686 2 27 0.34203 0.549924 0.120393 
687 1 27 0.367491 0.563332 0.137949 
688 2 27 0.368932 0.570112 0.153334 
689 2 27 0.37634 0.549483 0.137887 
690 2 27 0.374595 0.573394 0.127728 
691 1 27 0.295556 0.59512 0.129516 
692 2 27 0.281512 0.595276 0.119644 
693 2 27 0.291148 0.59168 0.144966 
694 2 27 0.300555 0.611141 0.131489 
695 1 27 0.345685 0.602016 0.12708 
696 2 27 0.349185 0.604802 0.110837 
697 2 27 0.335396 0.613933 0.130922 
698 2 27 0.357867 0.605617 0.137076 
699 1 27 0.334649 0.548344 0.151879 
700 2 27 0.340477 0.553138 0.167525 
701 2 27 0.318115 0.548818 0.153886 
702 2 27 0.338321 0.531568 0.150469 
703 1 28 0.876791 0.879591 0.214212 
704 2 28 0.892937 0.874536 0.211616 
705 2 28 0.879834 0.894656 0.220595 
706 2 28 0.869466 0.869598 0.226332 
707 1 28 0.864666 0.881948 0.194712 
708 2 28 0.858107 0.86693 0.190104 
709 1 28 0.846546 0.898119 0.197278 
710 2 28 0.852912 0.912748 0.203402 
711 1 28 0.837203 0.90409 0.176035 
712 2 28 0.849998 0.907147 0.163775 
713 1 28 0.822989 0.887085 0.167383 
714 2 28 0.830819 0.87178 0.166643 
715 2 28 0.811495 0.881913 0.178246 
716 2 28 0.816748 0.892974 0.153683 
717 1 28 0.879716 0.887718 0.176811 
718 2 28 0.893183 0.877728 0.178181 
719 2 28 0.870352 0.882172 0.162167 
720 2 28 0.883654 0.903997 0.175711 
721 1 28 0.830073 0.893451 0.213802 
722 2 28 0.827553 0.877574 0.210621 
723 2 28 0.837157 0.896204 0.228845 
724 2 28 0.817432 0.903833 0.212777 
725 1 28 0.823479 0.923385 0.177052 
726 2 28 0.829704 0.93347 0.187838 
727 2 28 0.824215 0.930787 0.161423 
728 2 28 0.806943 0.91988 0.181944 
729 1 29 0.666355 0.160468 0.616673 
730 2 29 0.675737 0.146577 0.614854 
731 2 29 0.667756 0.163402 0.633324 
732 2 29 0.650475 0.15509 0.615253 
733 1 29 0.67256 0.179597 0.601803 
734 2 29 0.67556 0.17399 0.586139 
735 1 29 0.654391 0.196569 0.600408 
736 2 29 0.660157 0.209895 0.592187 
737 1 29 0.63437 0.18892 0.587972 
738 2 29 0.630304 0.173026 0.59419 
739 1 29 0.614318 0.203341 0.59087 
740 2 29 0.602813 0.199699 0.579781 
741 2 29 0.606202 0.202019 0.605943 
742 2 29 0.619275 0.219672 0.586597 
743 1 29 0.692377 0.191793 0.608451 
744 2 29 0.706978 0.185621 0.602855 
745 2 29 0.6917 0.207066 0.60006 
746 2 29 0.695078 0.194317 0.625141 
747 1 29 0.647955 0.203243 0.623217 
748 2 29 0.63937 0.19047 0.631416 
749 2 29 0.660412 0.207379 0.633324 
750 2 29 0.638238 0.216903 0.621503 
751 1 29 0.636903 0.185165 0.56456 
752 2 29 0.621199 0.182177 0.558371 
753 2 29 0.643906 0.196852 0.555973 
754 2 29 0.646089 0.171067 0.560886 
755 1 30 0.820715 0.239299 0.826402 
756 2 30 0.836628 0.243027 0.821456 
757 2 30 0.82091 0.240409 0.843393 
758 2 30 0.818388 0.222993 0.823129 
759 1 30 0.806696 0.254907 0.814487 
760 2 30 0.814731 0.270014 0.816366 
761 1 30 0.804824 0.251439 0.789755 
762 2 30 0.799825 0.235693 0.787331 
763 1 30 0.787302 0.266538 0.779612 
764 2 30 0.772999 0.263784 0.788265 
765 1 30 0.793939 0.289998 0.779733 
766 2 30 0.780027 0.300511 0.778789 
767 2 30 0.801221 0.293631 0.794741 
768 2 30 0.806306 0.294065 0.767637 
769 1 30 0.78538 0.254077 0.825515 
770 2 30 0.776929 0.23794 0.824682 
771 2 30 0.786533 0.258469 0.842223 
772 2 30 0.774359 0.265578 0.820844 
773 1 30 0.826486 0.255245 0.779477 
774 2 30 0.829645 0.271873 0.780775 
775 2 30 0.838214 0.246138 0.789357 
776 2 30 0.826958 0.251136 0.761973 
777 1 30 0.782786 0.258066 0.756966 
778 2 30 0.797443 0.254626 0.746857 
779 2 30 0.77333 0.244701 0.758937 
780 2 30 0.773766 0.269581 0.749462 
781 1 31 0.627416 0.943054 0.512562 
782 2 31 0.616664 0.940578 0.525995 
783 2 31 0.617804 0.941879 0.498648 
784 2 31 0.641031 0.932992 0.511863 
785 1 31 0.635804 0.965618 0.515551 
786 2 31 0.651212 0.963685 0.520636 
787 1 31 0.635015 0.978945 0.495815 
788 2 31 0.641251 0.994005 0.498403 
789 1 31 0.650251 0.971322 0.478881 
790 2 31 0.64594 0.956147 0.474641 
791 1 31 0.649022 0.983425 0.458771 
792 2 31 0.633369 0.984114 0.451365 
793 2 31 0.653364 6.04551e-05 0.459564 
794 2 31 0.660295 0.975798 0.448276 
795 1 31 0.624824 0.976582 0.534079 
796 2 31 0.630096 0.992949 0.534645 
797 2 31 0.607491 0.978564 0.531174 
798 2 31 0.627158 0.969338 0.548942 
799 1 31 0.61154 0.982917 0.488821 
800 2 31 0.600518 0.987699 0.502625 
801 2 31 0.612073 0.994093 0.47674 
802 2 31 0.60756 0.968154 0.480526 
803 1 31 0.673966 0.97178 0.485791 
804 2 31 0.676747 0.957603 0.493836 
805 2 31 0.684845 0.969286 0.472948 
806 2 31 0.678015 0.985992 0.49447 
807 1 32 0.685205 0.743386 0.372963 
808 2 32 0.682018 0.72705 0.370178 
809 2 32 0.675125 0.750822 0.362284 
810 2 32 0.701631 0.746067 0.369341 
811 1 32 0.681648 0.751953 0.396095 
812 2 32 0.66476 0.749455 0.397476 
813 1 32 0.692037 0.74008 0.414388 
814 2 32 0.709974 0.739775 0.410161 
815 1 32 0.688842 0.749894 0.437369 
816 2 32 0.692768 0.766825 0.436567 
817 1 32 0.666252 0.750202 0.445373 
818 2 32 0.66436 0.764263 0.45567 