ITEM: TIMESTEP
20000000
ITEM: NUMBER OF ATOMS
1000
ITEM: BOX BOUNDS pp pp pp
7.7905494032567801e-02 6.3722094505955070e+01
7.7905494032567801e-02 6.3722094505955070e+01
7.7905494032567801e-02 6.3722094505955070e+01
ITEM: ATOMS id type mol xs ys zs 
1 1 1 0.703507 0.152334 0.0135013 
2 1 2 0.166828 0.117455 0.775454 
3 1 3 0.607887 0.41489 0.435031 
4 1 4 0.640049 0.807089 0.601051 
5 1 5 0.570572 0.269075 0.85207 
6 1 6 0.853005 0.960558 0.260074 
7 1 7 0.726638 0.828503 0.241947 
8 1 8 0.40791 0.332538 0.253987 
9 1 9 0.754473 0.75108 0.572806 
10 1 10 0.904783 0.173481 0.923024 
11 1 11 0.451458 0.511895 0.537539 
12 1 12 0.494622 0.0993927 0.733903 
13 1 13 0.127874 0.89572 0.166491 
14 1 14 0.0695552 0.37999 0.653155 
15 1 15 0.157296 0.0765369 0.863933 
16 1 16 0.433512 0.653375 0.389529 
17 1 17 0.204402 0.748113 0.070977 
18 1 18 0.872718 0.494949 0.90855 
19 1 19 0.328564 0.155074 0.243336 
20 1 20 0.844101 0.108618 0.109125 
21 1 21 0.487263 0.939988 0.30099 
22 1 22 0.934167 0.846162 0.0640335 
23 1 23 0.771982 0.445014 0.402184 
24 1 24 0.358338 0.426259 0.215854 
25 1 25 0.409686 0.0848164 0.0434238 
26 1 26 0.825483 0.827385 0.607267 
27 1 27 0.0797752 0.704996 0.861997 
28 1 28 0.625548 0.217944 0.357185 
29 1 29 0.24391 0.637437 0.99839 
30 1 30 0.238581 0.514629 0.291905 
31 1 31 0.371369 0.36922 0.342774 
32 1 32 0.227126 0.789765 0.80654 
33 1 33 0.0638195 0.704377 0.00459045 
34 1 34 0.453529 0.291267 0.504484 
35 1 35 0.0599127 0.857378 0.731436 
36 1 36 0.196884 0.0259158 0.40082 
37 1 37 0.821953 0.600049 0.305898 
38 1 38 0.529702 0.0010986 0.794305 
39 1 39 0.105337 0.467068 0.521324 
40 1 40 0.948716 0.73383 0.108472 
41 1 41 0.339719 0.313974 0.658599 
42 1 42 0.245451 0.891389 0.202404 
43 1 43 0.262992 0.117237 0.55083 
44 1 44 0.920632 0.40636 0.154531 
45 1 45 0.911676 0.957373 0.789526 
46 1 46 0.699593 0.663595 0.710316 
47 1 47 0.341001 0.98544 0.783049 
48 1 48 0.802596 0.386755 0.723297 
49 1 49 0.502543 0.409658 0.857689 
50 1 50 0.721587 0.478063 0.689406 
51 1 51 0.301439 0.73839 0.342603 
52 1 52 0.749655 0.739649 0.368482 
53 1 53 0.113886 0.369521 0.0248897 
54 1 54 0.0374279 0.09084 0.46889 
55 1 55 0.852556 0.263036 0.966893 
56 1 56 0.242145 0.913198 0.11381 
57 1 57 0.0254677 0.381791 0.539597 
58 1 58 0.671346 0.286069 0.922351 
59 1 59 0.623604 0.299395 0.488939 
60 1 60 0.841686 0.871706 0.51156 
61 1 61 0.552586 0.845624 0.459928 
62 1 62 0.283449 0.308186 0.0741105 
63 1 63 0.842038 0.539159 0.0977434 
64 1 64 0.657634 0.991591 0.103879 
65 1 65 0.0651011 0.883927 0.498799 
66 1 66 0.780917 0.902421 0.269214 
67 1 67 0.964834 0.340623 0.21158 
68 1 68 0.0843195 0.520726 0.618838 
69 1 69 0.751258 0.735855 0.116432 
70 1 70 0.419397 0.0150834 0.87128 
71 1 71 0.36619 0.466611 0.387477 
72 1 72 0.20049 0.375316 0.16641 
73 1 73 0.290636 0.228852 0.160103 
74 1 74 0.849713 0.20277 0.427649 
75 1 75 0.449545 0.872217 0.895568 
76 1 76 0.667686 0.041029 0.490251 
77 1 77 0.816148 0.503093 0.49002 
78 1 78 0.591168 0.101575 0.716791 
79 1 79 0.374216 0.545794 0.230188 
80 1 80 0.848371 0.354939 0.567704 
81 1 81 0.0874833 0.337464 0.292154 
82 1 82 0.716325 0.916617 0.461643 
83 1 83 0.513495 0.580131 0.0907588 
84 1 84 0.993082 0.822663 0.412759 
85 1 85 0.55331 0.850735 0.34812 
86 1 86 0.723436 0.36694 0.682811 
87 1 87 0.222469 0.906136 0.867589 
88 1 88 0.472211 0.96518 0.942339 
89 1 89 0.0888297 0.810513 0.415841 
90 1 90 0.532199 0.467882 0.613906 
91 1 91 0.0529479 0.263157 0.582321 
92 1 92 0.195104 0.189047 0.839707 
93 1 93 0.728588 0.898509 0.983739 
94 1 94 0.754601 0.363367 0.922217 
95 1 95 0.397684 0.977853 0.217375 
96 1 96 0.661942 0.374393 0.209729 
97 1 97 0.305538 0.780998 0.630734 
98 1 98 0.981597 0.255795 0.422319 
99 1 99 0.750879 0.0926728 0.545559 
100 1 100 0.918413 0.739785 0.882586 
101 1 101 0.231094 0.222272 0.32084 
102 1 102 0.615991 0.988682 0.866975 
103 1 103 0.957531 0.473754 0.0688671 
104 1 104 0.581266 0.273461 0.977042 
105 1 105 0.385306 0.686414 0.602109 
106 1 106 0.843813 0.157475 0.224431 
107 1 107 0.536969 0.820458 0.823215 
108 1 108 0.660051 0.613406 0.512546 
109 1 109 0.802216 0.271431 0.899291 
110 1 110 0.477372 0.553127 0.286143 
111 1 111 0.992233 0.726261 0.427662 
112 1 112 0.0849901 0.677999 0.668504 
113 1 113 0.177616 0.410998 0.970985 
114 1 114 0.217895 0.472158 0.496504 
115 1 115 0.628087 0.712615 0.490288 
116 1 116 0.252834 0.460825 0.632913 
117 1 117 0.882935 0.863763 0.305991 
118 1 118 0.485852 0.807208 0.997335 
119 1 119 0.619773 0.938902 0.348762 
120 1 120 0.846735 0.92215 0.0676835 
121 1 121 0.58094 0.743335 0.803996 
122 1 122 0.391006 0.958886 0.42194 
123 1 123 0.851675 0.258768 0.523637 
124 1 124 0.586136 0.51604 0.127692 
125 1 125 0.0266247 0.578938 0.235098 
126 1 126 0.413617 0.633162 0.889426 
127 1 127 0.85916 0.420009 0.0953194 
128 1 128 0.0703533 0.874829 0.846374 
129 1 129 0.788797 0.603267 0.928483 
130 1 130 0.297311 0.406891 0.447375 
131 1 131 0.550318 0.760908 0.950136 
132 1 132 0.00169097 0.445259 0.642482 
133 1 133 0.485327 0.484191 0.435061 
134 1 134 0.705509 0.702157 0.940233 
135 1 135 0.877692 0.741917 0.396293 
136 1 136 0.0224163 0.275511 0.252348 
137 1 137 0.890903 0.367547 0.698736 
138 1 138 0.943459 0.00168126 0.696057 
139 1 139 0.395046 0.573635 0.470298 
140 1 140 0.307744 0.14337 0.0864205 
141 1 141 0.664732 0.240058 0.0188646 
142 1 142 0.220552 0.622504 0.580559 
143 1 143 0.231561 0.544328 0.572702 
144 1 144 0.455911 0.641753 0.0834106 
145 1 145 0.735548 0.837161 0.520309 
146 1 146 0.988066 0.713386 0.297488 
147 1 147 0.734634 0.224337 0.812608 
148 1 148 0.984148 0.631567 0.681004 
149 1 149 0.00448775 0.100454 0.924754 
150 1 150 0.435038 0.308936 0.357253 
151 1 151 0.443962 0.47042 0.248118 
152 1 152 0.628086 0.696117 0.995002 
153 1 153 0.279542 0.987211 0.710626 
154 1 154 0.24071 0.0484244 0.923523 
155 1 155 0.817617 0.670679 0.420514 
156 1 156 0.95139 0.538831 0.420769 
157 1 157 0.473874 0.600482 0.475493 
158 1 158 0.240188 0.00328254 0.215537 
159 1 159 0.300534 0.686609 0.168982 
160 1 160 0.79217 0.08288 0.637099 
161 1 161 0.523914 0.00108912 0.701159 
162 1 162 0.404498 0.241388 0.903431 
163 1 163 0.111748 0.360443 0.842336 
164 1 164 0.627588 0.899836 0.82476 
165 1 165 0.253009 0.330137 0.767729 
166 1 166 0.655005 0.93451 0.54586 
167 1 167 0.475959 0.980418 0.116341 
168 1 168 0.171552 0.242056 0.773642 
169 1 169 0.0933874 0.614233 0.900914 
170 1 170 0.126962 0.662689 0.575622 
171 1 171 0.10465 0.277494 0.470969 
172 1 172 0.220925 0.56196 0.820763 
173 1 173 0.123531 0.0037895 0.230233 
174 1 174 0.248809 0.482643 0.738522 
175 1 175 0.892065 0.997245 0.903164 
176 1 176 0.894959 0.769734 0.282757 
177 1 177 0.197638 0.905945 0.992795 
178 1 178 0.0775818 0.437292 0.978363 
179 1 179 0.109649 0.238694 0.873582 
180 1 180 0.291955 0.429978 0.557698 
181 1 181 0.45971 0.0933745 0.119325 
182 1 182 0.52038 0.626779 0.696343 
183 1 183 0.720282 0.804266 0.421461 
184 1 184 0.433461 0.399686 0.408101 
185 1 185 0.164999 0.474316 0.166846 
186 1 186 0.714976 0.345158 0.442968 
187 1 187 0.70101 0.197061 0.918852 
188 1 188 0.384305 0.577817 0.600365 
189 1 189 0.620754 0.172927 0.855677 
190 1 190 0.0282328 0.0274691 0.763768 
191 1 191 0.292609 0.516001 0.175706 
192 1 192 0.0851348 0.0117002 0.0958995 
193 1 193 0.806223 0.0523651 0.0448196 
194 1 194 0.409905 0.0938006 0.220436 
195 1 195 0.177704 0.643268 0.480284 
196 1 196 0.241145 0.89314 0.768158 
197 1 197 0.19675 0.959823 0.473597 
198 1 198 0.105847 0.715754 0.34239 
199 1 199 0.0425655 0.205426 0.458936 
200 1 200 0.650402 0.410345 0.518789 
201 1 201 0.671463 0.701677 0.841978 
202 1 202 0.466329 0.199293 0.700612 
203 1 203 0.154585 0.125357 0.211198 
204 1 204 0.708642 0.6035 0.241086 
205 1 205 0.898727 0.288764 0.859951 
206 1 206 0.685433 0.458759 0.391858 
207 1 207 0.148496 0.638955 0.0584594 
208 1 208 0.53926 0.184457 0.362648 
209 1 209 0.658256 0.515374 0.223985 
210 1 210 0.613831 0.483942 0.750141 
211 1 211 0.138824 0.541674 0.0966642 
212 1 212 0.779687 0.295509 0.345895 
213 1 213 0.993904 0.616667 0.338775 
214 1 214 0.870348 0.766945 0.0379509 
215 1 215 0.30581 0.948472 0.245782 
216 1 216 0.374487 0.527666 0.844605 
217 1 217 0.346475 0.471341 0.0985531 
218 1 218 0.806355 0.32638 0.449848 
219 1 219 0.286284 0.75309 0.452509 
220 1 220 0.579994 0.88405 0.175755 
221 1 221 0.337713 0.673773 0.686262 
222 1 222 0.236128 0.330188 0.984556 
223 1 223 0.307158 0.263143 0.733234 
224 1 224 0.458252 0.123537 0.80513 
225 1 225 0.974724 0.320625 0.516972 
226 1 226 0.029717 0.916026 0.0846225 
227 1 227 0.817012 0.661334 0.0307613 
228 1 228 0.0254352 0.0880431 0.113898 
229 1 229 0.0116858 0.93029 0.804389 
230 1 230 0.975698 0.914007 0.993418 
231 1 231 0.0325868 0.963647 0.1727 
232 1 232 0.90425 0.522332 0.551219 
233 1 233 0.103036 0.444835 0.77251 
234 1 234 0.730358 0.508001 0.304268 
235 1 235 0.966704 0.0771944 0.670431 
236 1 236 0.650246 0.572633 0.333793 
237 1 237 0.67164 0.251561 0.241026 
238 1 238 0.384698 0.166068 0.541312 
239 1 239 0.91672 0.0936085 0.178457 
240 1 240 0.305723 1.4851e-05 0.888024 
241 1 241 0.701643 0.424623 0.819746 
242 1 242 0.86014 0.736666 0.585003 
243 1 243 0.663651 0.336621 0.591297 
244 1 244 0.357895 0.0525454 0.719817 
245 1 245 0.292108 0.594442 0.907699 
246 1 246 0.350331 0.48363 0.759536 
247 1 247 0.303074 0.260313 0.834458 
248 1 248 0.72855 0.790422 0.925977 
249 1 249 0.928408 0.680878 0.784966 
250 1 250 0.840469 0.771626 0.771298 
251 1 251 0.425945 0.558328 0.376366 
252 1 252 0.692614 0.755786 0.736841 
253 1 253 0.87995 0.0642812 0.589859 
254 1 254 0.0746263 0.383495 0.173052 
255 1 255 0.208787 0.39905 0.695352 
256 1 256 0.548902 0.589928 0.545938 
257 1 257 0.0595098 0.4129 0.360881 
258 1 258 0.097891 0.789176 0.822723 
259 1 259 0.692638 0.812955 0.825674 
260 1 260 0.900831 0.334246 0.077786 
261 1 261 0.0896949 0.794051 0.240328 
262 1 262 0.0314894 0.590264 0.491879 
263 1 263 0.637964 0.772229 0.895904 
264 1 264 0.109458 0.180583 0.264037 
265 1 265 0.00652803 0.58305 0.917384 
266 1 266 0.237904 0.124565 0.993868 
267 1 267 0.71646 0.974511 0.767205 
268 1 268 0.565408 0.293544 0.203908 
269 1 269 0.153684 0.959239 0.901413 
270 1 270 0.370875 0.365037 0.0459352 
271 1 271 0.844465 0.734633 0.926812 
272 1 272 0.749102 0.736476 0.0160921 
273 1 273 0.129398 0.330241 0.573263 
274 1 274 0.709198 0.0399607 0.0220842 
275 1 275 0.783137 0.101796 0.311766 
276 1 276 0.872506 0.0429861 0.287214 
277 1 277 0.76465 0.955339 0.0663603 
278 1 278 0.107005 0.77197 0.129022 
279 1 279 0.413006 0.121067 0.922401 
280 1 280 0.0109252 0.78119 0.342116 
281 1 281 0.1261 0.0750532 0.675655 
282 1 282 0.441501 0.34006 0.640597 
283 1 283 0.933872 0.588684 0.842553 
284 1 284 0.634321 0.86389 0.248288 
285 1 285 0.668736 0.319981 0.326303 
286 1 286 0.191749 0.927219 0.672281 
287 1 287 0.16023 0.448324 0.375128 
288 1 288 0.883497 0.935454 0.448346 
289 1 289 0.202578 0.141107 0.121685 
290 1 290 0.927116 0.0779734 0.490402 
291 1 291 0.770128 0.846004 0.150997 
292 1 292 0.75698 0.621283 0.807737 
293 1 293 0.119219 0.521321 0.891579 
294 1 294 0.538542 0.530767 0.732935 
295 1 295 0.600768 0.629013 0.769574 
296 1 296 0.581267 0.788953 0.696561 
297 1 297 0.673705 0.514816 0.886528 
298 1 298 0.161056 0.570171 0.00140096 
299 1 299 0.369991 0.252351 0.459606 
300 1 300 0.627357 0.421925 0.312227 
301 1 301 0.350059 0.451166 0.92955 
302 1 302 0.510005 0.729413 0.0304694 
303 1 303 0.752443 0.172228 0.100395 
304 1 304 0.824438 0.77133 0.176339 
305 1 305 0.489111 0.581594 0.882086 
306 1 306 0.739395 0.415306 0.110357 
307 1 307 0.319305 0.884124 0.676943 
308 1 308 0.427515 0.772455 0.906738 
309 1 309 0.709735 0.974579 0.351188 
310 1 310 0.392486 0.853157 0.226294 
311 1 311 0.585223 0.787874 0.40827 
312 1 312 0.831432 0.543207 0.827546 
313 1 313 0.937519 0.676529 0.0326619 
314 1 314 0.309385 0.755844 0.0966521 
315 1 315 0.268657 0.476937 0.399491 
316 1 316 0.711032 0.45388 0.6015 
317 1 317 0.0126423 0.607381 0.592844 
318 1 318 0.874413 0.440404 0.804874 
319 1 319 0.802248 0.177422 0.905267 
320 1 320 0.658523 0.347775 0.861406 
321 1 321 0.935067 0.396921 0.883385 
322 1 322 0.413428 0.977569 0.0396321 
323 1 323 0.570155 0.208642 0.254115 
324 1 324 0.511209 0.834455 0.624529 
325 1 325 0.599522 0.318737 0.392613 
326 1 326 0.50514 0.207017 0.799926 
327 1 327 0.486054 0.332676 0.175925 
328 1 328 0.280251 0.15525 0.891961 
329 1 329 0.622963 0.466282 0.952541 
330 1 330 0.533249 0.304324 0.0567313 
331 1 331 0.724876 0.235816 0.403818 
332 1 332 0.0600698 0.648494 0.426898 
333 1 333 0.0701168 0.902755 0.264563 
334 1 334 0.0753426 0.978817 0.381486 
335 1 335 0.348181 0.900836 0.769498 
336 1 336 0.784947 0.303394 0.618198 
337 1 337 0.0544432 0.314819 0.931518 
338 1 338 0.899589 0.854396 0.815253 
339 1 339 0.908506 0.592978 0.0769405 
340 1 340 0.701539 0.340073 0.0331269 
341 1 341 0.568183 0.748119 0.288438 
342 1 342 0.589478 0.352876 0.10418 
343 1 343 0.957446 0.776167 0.98952 
344 1 344 0.960233 0.903396 0.517136 
345 1 345 0.608821 0.76195 0.199165 
346 1 346 0.573259 0.358076 0.923673 
347 1 347 0.0761065 0.725491 0.574546 
348 1 348 0.200033 0.414707 0.794289 
349 1 349 0.389924 0.568305 0.727731 
350 1 350 0.515668 0.691861 0.758472 
351 1 351 0.443549 0.463906 0.329771 
352 1 352 0.942852 0.181139 0.441312 
353 1 353 0.559479 0.454917 0.518943 
354 1 354 0.426483 0.676448 0.727459 
355 1 355 0.9833 0.216676 0.96615 
356 1 356 0.478315 0.11078 0.377274 
357 1 357 0.217812 0.225339 0.0346732 
358 1 358 0.843802 0.665539 0.8619 
359 1 359 0.39681 0.547703 0.0299232 
360 1 360 0.748202 0.99125 0.514121 
361 1 361 0.264633 0.268529 0.917652 
362 1 362 0.65711 0.504194 0.516683 
363 1 363 0.647693 0.817285 0.496926 
364 1 364 0.166996 0.694608 0.158837 
365 1 365 0.108706 0.13099 0.121892 
366 1 366 0.676728 0.0981709 0.659112 
367 1 367 0.543662 0.459523 0.252294 
368 1 368 0.435807 0.042513 0.77674 
369 1 369 0.132308 0.56376 0.556642 
370 1 370 0.742901 0.287164 0.100596 
371 1 371 0.0781639 0.0797168 0.296472 
372 1 372 0.970305 0.719906 0.616886 
373 1 373 0.0832437 0.0547111 0.180749 
374 1 374 0.899417 0.825967 0.923541 
375 1 375 0.169719 0.032484 0.299893 
376 1 376 0.871759 0.572588 0.458532 
377 1 377 0.0259141 0.614109 0.0438899 
378 1 378 0.629169 0.0518176 0.321002 
379 1 379 0.643421 0.831058 0.760607 
380 1 380 0.534186 0.824269 0.232998 
381 1 381 0.0911168 0.107803 0.39909 
382 1 382 0.902492 0.265149 0.367969 
383 1 383 0.403037 0.90791 0.551663 
384 1 384 0.120747 0.242273 0.113237 
385 1 385 0.247633 0.0253458 0.519264 
386 1 386 0.264773 0.0648697 0.812601 
387 1 387 0.00562155 0.786061 0.520895 
388 1 388 0.45777 0.782651 0.710267 
389 1 389 0.388445 0.16618 0.153267 
390 1 390 0.98816 0.052262 0.568192 
391 1 391 0.311491 0.157955 0.691587 
392 1 392 0.483072 0.194804 0.0956356 
393 1 393 0.738281 0.749659 0.223479 
394 1 394 0.609542 0.0744555 0.0197135 
395 1 395 0.343962 0.660289 0.0727772 
396 1 396 0.872085 0.0348506 0.80054 
397 1 397 0.401482 0.11949 0.309268 
398 1 398 0.0941769 0.14665 0.892755 
399 1 399 0.18793 0.633872 0.921287 
400 1 400 0.757416 0.728282 0.84046 
401 1 401 0.394213 0.801392 0.592056 
402 1 402 0.0239192 0.517686 0.697937 
403 1 403 0.256769 0.849029 0.47031 
404 1 404 0.836004 0.63714 0.65547 
405 1 405 0.463863 0.908665 0.203557 
406 1 406 0.613253 0.592673 0.177202 
407 1 407 0.544715 0.124652 0.168929 
408 1 408 0.689023 0.615845 0.869324 
409 1 409 0.298071 0.912563 0.383434 
410 1 410 0.295502 0.746751 0.982031 
411 1 411 0.852808 0.693163 0.109036 
412 1 412 0.322551 0.984366 0.610981 
413 1 413 0.3284 0.756979 0.792029 
414 1 414 0.384273 0.210432 0.816775 
415 1 415 0.592762 0.991917 0.531827 
416 1 416 0.411607 0.379605 0.740807 
417 1 417 0.9796 0.383594 0.994568 
418 1 418 0.548584 0.343761 0.508556 
419 1 419 0.0212942 0.397467 0.0722346 
420 1 420 0.437329 0.761661 0.244261 
421 1 421 0.744682 0.445815 0.493972 
422 1 422 0.94879 0.278918 0.757968 
423 1 423 0.235578 0.775121 0.939198 
424 1 424 0.171374 0.651234 0.815047 
425 1 425 0.76383 0.821916 0.0557029 
426 1 426 0.221882 0.909828 0.40282 
427 1 427 0.231524 0.302845 0.243298 
428 1 428 0.4221 0.129836 0.637143 
429 1 429 0.951261 0.998023 0.185859 
430 1 430 0.0212375 0.307021 0.128396 
431 1 431 0.014011 0.700715 0.764359 
432 1 432 0.145666 0.760154 0.636536 
433 1 433 0.247119 0.412936 0.236258 
434 1 434 0.671775 0.860059 0.368515 
435 1 435 0.640435 0.231306 0.577996 
436 1 436 0.771883 0.396744 0.275638 
437 1 437 0.723633 0.917927 0.856696 
438 1 438 0.220092 0.291945 0.673554 
439 1 439 0.755479 0.362506 0.571254 
440 1 440 0.530703 0.817887 0.109048 
441 1 441 0.422532 0.958149 0.711007 
442 1 442 0.372647 0.8122 0.0559962 
443 1 443 0.239219 0.82127 0.355641 
444 1 444 0.82142 0.158822 0.782303 
445 1 445 0.318505 0.00524417 0.428545 
446 1 446 0.655283 0.00289183 0.422315 
447 1 447 0.0122931 0.407395 0.259488 
448 1 448 0.263714 0.701426 0.560336 
449 1 449 0.0225576 0.276137 0.0445043 
450 1 450 0.598259 0.716333 0.676099 
451 1 451 0.434866 0.886516 0.112714 
452 1 452 0.6897 0.432058 0.000310551 
453 1 453 0.574649 0.518881 0.453395 
454 1 454 0.332569 0.266086 0.566398 
455 1 455 0.532642 0.295395 0.326138 
456 1 456 0.834623 0.463278 0.189869 
457 1 457 0.633274 0.674069 0.264574 
458 1 458 0.729638 0.264095 0.510356 
459 1 459 0.753247 0.961371 0.17035 
460 1 460 0.951879 0.311384 0.630073 
461 1 461 0.765032 0.211637 0.198908 
462 1 462 0.956465 0.212695 0.545224 
463 1 463 0.440548 0.299796 0.105894 
464 1 464 0.164542 0.192944 0.424472 
465 1 465 0.0156529 0.807839 0.827928 
466 1 466 0.632948 0.794068 0.0167755 
467 1 467 0.689054 0.910725 0.167769 
468 1 468 0.337282 0.0559449 0.273273 
469 1 469 0.434742 0.0190219 0.325716 
470 1 470 0.15778 0.477854 0.0280862 
471 1 471 0.808975 0.656213 0.543981 
472 1 472 0.326288 0.732431 0.253738 
473 1 473 0.21974 0.696843 0.6619 
474 1 474 0.769414 0.47613 0.863143 
475 1 475 0.32001 0.403327 0.133978 
476 1 476 0.606655 0.439529 0.836343 
477 1 477 0.875172 0.347745 0.795203 
478 1 478 0.0402016 0.180564 0.036568 
479 1 479 0.563046 0.361735 0.767755 
480 1 480 0.497126 0.147082 0.271582 
481 1 481 0.242186 0.829389 0.673941 
482 1 482 0.906182 0.46715 0.652302 
483 1 483 0.593957 0.636539 0.613883 
484 1 484 0.657414 0.293051 0.144533 
485 1 485 0.867367 0.361081 0.242878 
486 1 486 0.813114 0.00477237 0.676609 
487 1 487 0.985484 0.997548 0.476518 
488 1 488 0.924236 0.564848 0.669854 
489 1 489 0.807535 0.820184 0.851018 
490 1 490 0.135737 0.286019 0.206272 
491 1 491 0.457362 0.310345 0.82513 
492 1 492 0.159019 0.0974257 0.573501 
493 1 493 0.223506 0.0261315 0.630412 
494 1 494 0.27456 0.988685 0.331325 
495 1 495 0.495411 0.720202 0.181157 
496 1 496 0.545823 0.651958 0.348928 
497 1 497 0.992125 0.859301 0.894737 
498 1 498 0.642926 0.433238 0.114415 
499 1 499 0.613697 0.888253 0.680713 
500 1 500 0.104096 0.27388 0.684233 
501 1 501 0.327104 0.694504 0.901681 
502 1 502 0.849694 0.909615 0.191742 
503 1 503 0.000472036 0.797602 0.121299 
504 1 504 0.528022 0.535566 0.376479 
505 1 505 0.514781 0.423737 0.698274 
506 1 506 0.494237 0.710903 0.625419 
507 1 507 0.778681 0.548139 0.210893 
508 1 508 0.504908 0.904645 0.0297948 
509 1 509 0.276182 0.666808 0.763009 
510 1 510 0.172207 0.0659082 0.0702967 
511 1 511 0.292968 0.900501 0.946312 
512 1 512 0.0718466 0.524967 0.189358 
513 1 513 0.724736 0.160812 0.704959 
514 1 514 0.948963 0.116713 0.0140309 
515 1 515 0.394017 0.813499 0.813569 
516 1 516 0.14592 0.484829 0.703518 
517 1 517 0.369918 0.997024 0.952604 
518 1 518 0.771718 0.886452 0.403879 
519 1 519 0.789089 0.0913692 0.76008 
520 1 520 0.284543 0.831867 0.286191 
521 1 521 0.189027 0.937316 0.316585 
522 1 522 0.607516 0.376697 0.0119893 
523 1 523 0.996926 0.278815 0.858094 
524 1 524 0.529306 0.714053 0.475178 
525 1 525 0.881498 0.159652 0.603145 
526 1 526 0.348232 0.0792739 0.843731 
527 1 527 0.94778 0.496026 0.763808 
528 1 528 0.866107 0.537354 0.732293 
529 1 529 0.995248 0.482792 0.859025 
530 1 530 0.655331 0.568654 0.676454 
531 1 531 0.565642 0.953978 0.441906 
532 1 532 0.213267 0.0133237 0.0081319 
533 1 533 0.791356 0.280417 0.247723 
534 1 534 0.287146 0.203552 0.611142 
535 1 535 0.0646867 0.270121 0.798101 
536 1 536 0.672529 0.886256 0.0834348 
537 1 537 0.548374 0.00116819 0.346508 
538 1 538 0.688975 0.969296 0.244834 
539 1 539 0.729873 0.61589 0.377592 
540 1 540 0.1306 0.948813 0.0704604 
541 1 541 0.428509 0.282995 0.738785 
542 1 542 0.657425 0.792783 0.317104 
543 1 543 0.393892 0.745605 0.406397 
544 1 544 0.0468878 0.41047 0.895157 
545 1 545 0.27378 0.47641 0.855765 
546 1 546 0.793891 0.749579 0.664536 
547 1 547 0.728326 0.541064 0.133132 
548 1 548 0.938355 0.310822 0.950549 
549 1 549 0.584238 0.565242 0.840891 
550 1 550 0.769508 0.987327 0.294592 
551 1 551 0.452815 0.839004 0.425559 
552 1 552 0.866582 0.240349 0.793752 
553 1 553 0.131041 0.283743 0.0244749 
554 1 554 0.85345 0.213982 0.154872 
555 1 555 0.823009 0.174066 0.686396 
556 1 556 0.810173 0.908775 0.805273 
557 1 557 0.481885 0.0305411 0.219578 
558 1 558 0.154148 0.876833 0.546774 
559 1 559 0.00517456 0.444728 0.184698 
560 1 560 0.239094 0.104536 0.268658 
561 1 561 0.837347 0.828824 0.394725 
562 1 562 0.223829 0.56613 0.469756 
563 1 563 0.862576 0.835478 0.707439 
564 1 564 0.451621 0.912444 0.797268 
565 1 565 0.709822 0.529082 0.968764 
566 1 566 0.39597 0.70413 0.159593 
567 1 567 0.178088 0.199855 0.940637 
568 1 568 0.850379 0.262612 0.65496 
569 1 569 0.0811644 0.30039 0.372873 
570 1 570 0.846985 0.948055 0.351492 
571 1 571 0.249914 0.351733 0.607314 
572 1 572 0.924881 0.0237824 0.392799 
573 1 573 0.878798 0.671348 0.4936 
574 1 574 0.921532 0.393451 0.585784 
575 1 575 0.526235 0.668923 0.856737 
576 1 576 0.611485 0.718041 0.0899968 
577 1 577 0.470152 0.830833 0.305319 
578 1 578 0.298321 0.424579 0.00162256 
579 1 579 0.444202 0.810807 0.162266 
580 1 580 0.906844 0.692996 0.213173 
581 1 581 0.167099 0.2197 0.573708 
582 1 582 0.995841 0.211045 0.705228 
583 1 583 0.624318 0.30003 0.659568 
584 1 584 0.26923 0.850044 0.0361455 
585 1 585 0.759043 0.116094 0.429237 
586 1 586 0.88261 0.129394 0.306129 
587 1 587 0.0745879 0.519849 0.406908 
588 1 588 0.918564 0.913215 0.887789 
589 1 589 0.339483 0.856469 0.132245 
590 1 590 0.0628382 0.960928 0.550708 
591 1 591 0.94731 0.888187 0.707709 
592 1 592 0.929283 0.257501 0.138801 
593 1 593 0.421365 0.234373 0.228765 
594 1 594 0.0816531 0.904915 0.995804 
595 1 595 0.185768 0.299162 0.402784 
596 1 596 0.14417 0.168593 0.504432 
597 1 597 0.511395 0.476506 0.940945 
598 1 598 0.407392 0.882394 0.998715 
599 1 599 0.956994 0.0742251 0.250902 
600 1 600 0.994273 0.0118139 0.998285 
601 1 601 0.303631 0.0351328 0.0171749 
602 1 602 0.321994 0.770181 0.536947 
603 1 603 0.546333 0.211849 0.479069 
604 1 604 0.470905 0.216167 0.409325 
605 1 605 0.826255 0.205394 0.334856 
606 1 606 0.7155 0.0645327 0.369224 
607 1 607 0.999222 0.0409056 0.373284 
608 1 608 0.203759 0.375857 0.427013 
609 1 609 0.822626 0.558521 0.99732 
610 1 610 0.929517 0.960321 0.328156 
611 1 611 0.503276 0.947093 0.603271 
612 1 612 0.347804 0.555912 0.335372 
613 1 613 0.96605 0.192912 0.247754 
614 1 614 0.774894 0.608419 0.466957 
615 1 615 0.577098 0.0298763 0.644219 
616 1 616 0.982294 0.671854 0.52205 
617 1 617 0.0954834 0.18212 0.745523 
618 1 618 0.433486 0.507936 0.906555 
619 1 619 0.593738 0.626921 0.42562 
620 1 620 0.198999 0.736383 0.501607 
621 1 621 0.218737 0.112632 0.456682 
622 1 622 0.866991 0.104837 0.393689 
623 1 623 0.0444971 0.856766 0.611055 
624 1 624 0.251613 0.383464 0.320745 
625 1 625 0.0292251 0.941563 0.918415 
626 1 626 0.309124 0.409136 0.784981 
627 1 627 0.494968 0.215109 0.181715 
628 1 628 0.257931 0.140305 0.363773 
629 1 629 0.123819 0.718628 0.454722 
630 1 630 0.464254 0.75163 0.351965 
631 1 631 0.203578 0.429958 0.0789103 
632 1 632 0.315975 0.94693 0.51465 
633 1 633 0.491096 0.32645 0.91531 
634 1 634 0.0262564 0.34068 0.431162 
635 1 635 0.286384 0.321298 0.497135 
636 1 636 0.193871 0.685208 0.321471 
637 1 637 0.360927 0.238085 0.0602752 
638 1 638 0.222283 0.655776 0.227624 
639 1 639 0.944389 0.157967 0.0910486 
640 1 640 0.585091 0.574809 0.940305 
641 1 641 0.317974 0.619011 0.523539 
642 1 642 0.178523 0.970619 0.156883 
643 1 643 0.769813 0.285298 0.731395 
644 1 644 0.739382 0.600125 0.0214947 
645 1 645 0.491868 0.386394 0.0201917 
646 1 646 0.43736 0.297301 0.0183958 
647 1 647 0.801969 0.00947033 0.589737 
648 1 648 0.461549 0.249498 0.590423 
649 1 649 0.568976 0.959596 0.244368 
650 1 650 0.350897 0.957987 0.137887 
651 1 651 0.672213 0.699059 0.589467 
652 1 652 0.772197 0.905885 0.560398 
653 1 653 0.0637985 0.148629 0.549963 
654 1 654 0.158157 0.729945 0.762161 
655 1 655 0.162431 0.53684 0.331664 
656 1 656 0.0678302 0.787476 0.945981 
657 1 657 0.344107 0.103082 0.988838 
658 1 658 0.788558 0.92456 0.92234 
659 1 659 0.246777 0.705322 0.87104 
660 1 660 0.713277 0.249815 0.653436 
661 1 661 0.103091 0.651852 0.262519 
662 1 662 0.0308253 0.315342 0.702542 
663 1 663 0.91594 0.664098 0.337435 
664 1 664 0.0803276 0.0869103 0.008513 
665 1 665 0.909573 0.218975 0.0289128 
666 1 666 0.12168 0.926602 0.792836 
667 1 667 0.112048 0.184969 0.633595 
668 1 668 0.210938 0.570643 0.727302 
669 1 669 0.795455 0.691774 0.754364 
670 1 670 0.226316 0.779896 0.240115 
671 1 671 0.078671 0.46204 0.096384 
672 1 672 0.229157 0.915025 0.584303 
673 1 673 0.232878 0.585005 0.129981 
674 1 674 0.116171 0.88602 0.34349 
675 1 675 0.137827 0.993535 0.578783 
676 1 676 0.595707 0.157583 0.053035 
677 1 677 0.109607 0.194065 0.99239 
678 1 678 0.667864 0.972776 0.965011 
679 1 679 0.4846 0.829895 0.538335 
680 1 680 0.404185 0.424544 0.591095 
681 1 681 0.352138 0.325927 0.803364 
682 1 682 0.577822 0.000819889 0.97245 
683 1 683 0.495613 0.598055 0.9952 
684 1 684 0.297106 0.592281 0.727797 
685 1 685 0.939177 0.474612 0.246249 
686 1 686 0.916895 0.819827 0.187105 
687 1 687 0.212787 0.998993 0.818417 
688 1 688 0.485176 0.033028 0.454362 
689 1 689 0.659564 0.793495 0.121992 
690 1 690 0.129504 0.373763 0.461343 
691 1 691 0.735471 0.104316 0.939069 
692 1 692 0.794699 0.00165041 0.409829 
693 1 693 0.661126 0.200113 0.15083 
694 1 694 0.76415 0.347585 0.185337 
695 1 695 0.972158 0.0175558 0.0844718 
696 1 696 0.9958 0.538478 0.0872925 
697 1 697 0.807082 0.986163 0.832649 
698 1 698 0.420819 0.193151 0.984584 
699 1 699 0.151184 0.799763 0.30742 
700 1 700 0.332513 0.445354 0.301789 
701 1 701 0.903838 0.111416 0.860261 
702 1 702 0.482028 0.664355 0.278569 
703 1 703 0.0697087 0.768231 0.711378 
704 1 704 0.725983 0.714971 0.470312 
705 1 705 0.438003 0.211557 0.316218 
706 1 706 0.982665 0.935026 0.630365 
707 1 707 0.232119 0.194013 0.732314 
708 1 708 0.633832 0.39798 0.739256 
709 1 709 0.991633 0.512846 0.56382 
710 1 710 0.962411 0.548784 0.175123 
711 1 711 0.241398 0.248951 0.505148 
712 1 712 0.166084 0.829769 0.448999 
713 1 713 0.796631 0.354797 0.0179592 
714 1 714 0.0893653 0.621506 0.146443 
715 1 715 0.935941 0.77306 0.777376 
716 1 716 0.158228 0.454016 0.871814 
717 1 717 0.250252 0.070354 0.726226 
718 1 718 0.449314 0.494102 0.788218 
719 1 719 0.641402 0.706651 0.363328 
720 1 720 0.574287 0.528816 0.0289535 
721 1 721 0.921789 0.602556 0.257315 
722 1 722 0.441874 0.136577 0.462604 
723 1 723 0.155603 0.253716 0.320875 
724 1 724 0.627727 0.00174262 0.734652 
725 1 725 0.268656 0.0922961 0.179246 
726 1 726 0.977284 0.028056 0.850871 
727 1 727 0.201167 0.373052 0.527771 
728 1 728 0.651078 0.58641 0.991235 
729 1 729 0.848512 0.449078 0.293862 
730 1 730 0.941292 0.827991 0.599849 
731 1 731 0.615049 0.111145 0.592244 
732 1 732 0.100489 0.0156835 0.469424 
733 1 733 0.369485 0.0742031 0.411142 
734 1 734 0.672107 0.292399 0.761131 
735 1 735 0.070115 0.993392 0.848374 
736 1 736 0.324716 0.522409 0.551412 
737 1 737 0.88582 0.466051 0.385619 
738 1 738 0.122707 0.541477 0.794298 
739 1 739 0.36454 0.922685 0.859016 
740 1 740 0.560167 0.0297468 0.124306 
741 1 741 0.219212 0.15201 0.638056 
742 1 742 0.271186 0.225154 0.410591 
743 1 743 0.823563 0.703203 0.298634 
744 1 744 0.982106 0.790586 0.688684 
745 1 745 0.485065 0.378995 0.267563 
746 1 746 0.309165 0.863377 0.553735 
747 1 747 0.966451 0.314056 0.338729 
748 1 748 0.0433481 0.111628 0.811989 
749 1 749 0.862163 0.141827 0.501278 
750 1 750 0.687117 0.157917 0.536673 
751 1 751 0.424172 0.864668 0.663828 
752 1 752 0.401579 0.910922 0.311087 
753 1 753 0.684307 0.578032 0.78329 
754 1 754 0.68183 0.500069 0.0654227 
755 1 755 0.206574 0.196224 0.212369 
756 1 756 0.0776374 0.0520563 0.916778 
757 1 757 0.730592 0.696306 0.298966 
758 1 758 0.811063 0.773579 0.466454 
759 1 759 0.556121 0.243406 0.736425 
760 1 760 0.423756 0.380924 0.932555 
761 1 761 0.351127 0.292552 0.139897 
762 1 762 0.0762487 0.563742 0.311596 
763 1 763 0.379355 0.348855 0.442441 
764 1 764 0.886745 0.413372 0.983541 
765 1 765 0.390253 0.231836 0.661384 
766 1 766 0.162 0.837119 0.756005 
767 1 767 0.470991 0.605151 0.795051 
768 1 768 0.730164 0.627669 0.620607 
769 1 769 0.696146 0.947649 0.66708 
770 1 770 0.918892 0.546109 0.997782 
771 1 771 0.661984 0.110376 0.0994905 
772 1 772 0.455573 0.66756 0.531485 
773 1 773 0.66733 0.614254 0.0951254 
774 1 774 0.471817 0.684009 0.94901 
775 1 775 0.46401 0.403733 0.503991 
776 1 776 0.0518276 0.796786 0.044033 
777 1 777 0.61881 0.0410596 0.204383 
778 1 778 0.848422 0.319489 0.156189 
779 1 779 0.713843 0.0330162 0.873051 
780 1 780 0.560799 0.837086 0.898437 
781 1 781 0.35344 0.0738465 0.613583 
782 1 782 0.311159 0.940531 0.0338733 
783 1 783 0.155667 0.597735 0.660285 
784 1 784 0.153378 0.78885 0.0154751 
785 1 785 0.818614 0.0873262 0.871452 
786 1 786 0.817736 0.169099 0.0241577 
787 1 787 0.0283738 0.993013 0.271609 
788 1 788 0.986149 0.516459 0.31186 